<?xml version="1.0" encoding="UTF-8"?>

<!-- generated on 2025-03-11 22:37:46 by Eclipse SUMO sumo Version 1.22.0
<sumoConfiguration xmlns:xsi="http://www.w3.org/2001/XMLSchema-instance" xsi:noNamespaceSchemaLocation="http://sumo.dlr.de/xsd/sumoConfiguration.xsd">

    <input>
        <net-file value="/home/mansour/project/Traffic_signal_control/RESCO/resco_benchmark/environments/cologne3/cologne3.net.xml"/>
        <route-files value="/home/mansour/project/Traffic_signal_control/RESCO/resco_benchmark/environments/cologne3/cologne3.rou.xml"/>
    </input>

    <output>
        <tripinfo-output value="/home/mansour/project/Traffic_signal_control/RESCO/results/IDQN-tr0-cologne3-0-drq_norm-wait_norm/tripinfo_80.xml"/>
        <tripinfo-output.write-unfinished value="true"/>
    </output>

    <time>
        <begin value="25200"/>
        <end value="28800"/>
    </time>

    <processing>
        <time-to-teleport value="-1"/>
    </processing>

    <report>
        <no-warnings value="True"/>
        <no-step-log value="True"/>
    </report>

    <traci_server>
        <remote-port value="52193"/>
    </traci_server>

    <random_number>
        <random value="true"/>
    </random_number>

</sumoConfiguration>
-->

<tripinfos xmlns:xsi="http://www.w3.org/2001/XMLSchema-instance" xsi:noNamespaceSchemaLocation="http://sumo.dlr.de/xsd/tripinfo_file.xsd">
    <tripinfo id="160296_421_0" depart="25211.00" departLane="241660955#13_0" departPos="4.40" departSpeed="0.00" departDelay="0.00" arrival="25236.00" arrivalLane="241660955#17_0" arrivalPos="110.13" arrivalSpeed="10.70" duration="25.00" routeLength="247.24" waitingTime="0.00" waitingCount="0" stopTime="0.00" timeLoss="3.93" rerouteNo="0" devices="tripinfo_160296_421_0" vType="pkw" speedFactor="0.85" vaporized=""/>
    <tripinfo id="73223_384_0" depart="25204.00" departLane="241660957#0_0" departPos="4.40" departSpeed="0.00" departDelay="0.00" arrival="25253.00" arrivalLane="4999331#0_0" arrivalPos="373.64" arrivalSpeed="12.40" duration="49.00" routeLength="489.64" waitingTime="2.00" waitingCount="1" stopTime="0.00" timeLoss="11.98" rerouteNo="0" devices="tripinfo_73223_384_0" vType="pkw" speedFactor="0.98" vaporized=""/>
    <tripinfo id="111294_401_0" depart="25211.00" departLane="-5229966#3_0" departPos="4.40" departSpeed="0.00" departDelay="0.00" arrival="25253.00" arrivalLane="4145590#0_0" arrivalPos="95.58" arrivalSpeed="13.17" duration="42.00" routeLength="453.70" waitingTime="0.00" waitingCount="0" stopTime="0.00" timeLoss="8.20" rerouteNo="0" devices="tripinfo_111294_401_0" vType="pkw" speedFactor="0.99" vaporized=""/>
    <tripinfo id="118698_405_0" depart="25214.00" departLane="-5229966#3_0" departPos="4.40" departSpeed="0.00" departDelay="1.00" arrival="25254.00" arrivalLane="4145590#0_0" arrivalPos="95.58" arrivalSpeed="13.16" duration="40.00" routeLength="453.70" waitingTime="0.00" waitingCount="0" stopTime="0.00" timeLoss="8.24" rerouteNo="0" devices="tripinfo_118698_405_0" vType="pkw" speedFactor="1.03" vaporized=""/>
    <tripinfo id="122325_406_0" depart="25208.00" departLane="319261593#12_0" departPos="4.40" departSpeed="0.00" departDelay="0.00" arrival="25255.00" arrivalLane="-31864804_0" arrivalPos="70.23" arrivalSpeed="11.79" duration="47.00" routeLength="352.97" waitingTime="9.00" waitingCount="1" stopTime="0.00" timeLoss="18.35" rerouteNo="0" devices="tripinfo_122325_406_0" vType="pkw" speedFactor="0.89" vaporized=""/>
    <tripinfo id="153968_420_0" depart="25227.00" departLane="319261593#12_0" departPos="4.40" departSpeed="0.00" departDelay="0.00" arrival="25257.00" arrivalLane="-31864804_0" arrivalPos="70.23" arrivalSpeed="15.46" duration="30.00" routeLength="352.97" waitingTime="0.00" waitingCount="0" stopTime="0.00" timeLoss="7.85" rerouteNo="0" devices="tripinfo_153968_420_0" vType="pkw" speedFactor="1.15" vaporized=""/>
    <tripinfo id="68266_381_0" depart="25229.00" departLane="4045329#5_0" departPos="4.40" departSpeed="0.00" departDelay="0.00" arrival="25257.00" arrivalLane="41910185#0_0" arrivalPos="127.86" arrivalSpeed="8.91" duration="28.00" routeLength="267.37" waitingTime="0.00" waitingCount="0" stopTime="0.00" timeLoss="4.86" rerouteNo="0" devices="tripinfo_68266_381_0" vType="pkw" speedFactor="1.13" vaporized=""/>
    <tripinfo id="169122_425_0" depart="25231.00" departLane="-4999334_0" departPos="4.40" departSpeed="0.00" departDelay="3.00" arrival="25259.00" arrivalLane="-4999334_0" arrivalPos="293.22" arrivalSpeed="11.18" duration="28.00" routeLength="288.82" waitingTime="0.00" waitingCount="0" stopTime="0.00" timeLoss="3.57" rerouteNo="0" devices="tripinfo_169122_425_0" vType="pkw" speedFactor="0.88" vaporized=""/>
    <tripinfo id="132667_410_0" depart="25212.00" departLane="-31800061#0_0" departPos="4.40" departSpeed="0.00" departDelay="0.00" arrival="25260.00" arrivalLane="-4999334_0" arrivalPos="293.22" arrivalSpeed="13.28" duration="48.00" routeLength="492.72" waitingTime="0.00" waitingCount="0" stopTime="0.00" timeLoss="14.45" rerouteNo="0" devices="tripinfo_132667_410_0" vType="pkw" speedFactor="1.21" vaporized=""/>
    <tripinfo id="132022_410_0" depart="25213.00" departLane="241660957#0_0" departPos="4.40" departSpeed="0.00" departDelay="0.00" arrival="25260.00" arrivalLane="4999331#0_0" arrivalPos="373.64" arrivalSpeed="13.90" duration="47.00" routeLength="489.64" waitingTime="2.00" waitingCount="1" stopTime="0.00" timeLoss="12.72" rerouteNo="0" devices="tripinfo_132022_410_0" vType="pkw" speedFactor="1.04" vaporized=""/>
    <tripinfo id="157649_421_0" depart="25230.00" departLane="319261593#12_0" departPos="4.40" departSpeed="0.00" departDelay="1.00" arrival="25261.00" arrivalLane="-31864804_0" arrivalPos="70.23" arrivalSpeed="13.53" duration="31.00" routeLength="352.97" waitingTime="0.00" waitingCount="0" stopTime="0.00" timeLoss="5.47" rerouteNo="0" devices="tripinfo_157649_421_0" vType="pkw" speedFactor="1.00" vaporized=""/>
    <tripinfo id="98545_395_0" depart="25206.00" departLane="4045330_0" departPos="4.40" departSpeed="0.00" departDelay="0.00" arrival="25264.00" arrivalLane="241660955#17_0" arrivalPos="110.13" arrivalSpeed="13.52" duration="58.00" routeLength="473.04" waitingTime="9.00" waitingCount="1" stopTime="0.00" timeLoss="19.40" rerouteNo="0" devices="tripinfo_98545_395_0" vType="pkw" speedFactor="1.05" vaporized=""/>
    <tripinfo id="140163_414_0" depart="25244.00" departLane="241660955#13_0" departPos="4.40" departSpeed="0.00" departDelay="0.00" arrival="25264.00" arrivalLane="-41910184_0" arrivalPos="185.90" arrivalSpeed="12.65" duration="20.00" routeLength="216.76" waitingTime="0.00" waitingCount="0" stopTime="0.00" timeLoss="3.46" rerouteNo="0" devices="tripinfo_140163_414_0" vType="pkw" speedFactor="1.00" vaporized=""/>
    <tripinfo id="73303_385_0" depart="25202.00" departLane="319261593#12_0" departPos="4.40" departSpeed="0.00" departDelay="0.00" arrival="25265.00" arrivalLane="4145590#0_0" arrivalPos="95.58" arrivalSpeed="15.28" duration="63.00" routeLength="408.95" waitingTime="18.00" waitingCount="2" stopTime="0.00" timeLoss="36.40" rerouteNo="0" devices="tripinfo_73303_385_0" vType="pkw" speedFactor="1.13" vaporized=""/>
    <tripinfo id="163719_422_0" depart="25211.00" departLane="4045330_0" departPos="4.40" departSpeed="0.00" departDelay="0.00" arrival="25265.00" arrivalLane="241660955#17_1" arrivalPos="110.13" arrivalSpeed="12.80" duration="54.00" routeLength="473.04" waitingTime="3.00" waitingCount="1" stopTime="0.00" timeLoss="11.92" rerouteNo="0" devices="tripinfo_163719_422_0" vType="pkw" speedFactor="0.96" vaporized=""/>
    <tripinfo id="113109_402_0" depart="25203.00" departLane="4999334_0" departPos="4.40" departSpeed="0.00" departDelay="0.00" arrival="25266.00" arrivalLane="-31864804_0" arrivalPos="70.23" arrivalSpeed="12.81" duration="63.00" routeLength="615.92" waitingTime="3.00" waitingCount="1" stopTime="0.00" timeLoss="16.59" rerouteNo="0" devices="tripinfo_113109_402_0" vType="pkw" speedFactor="0.97" vaporized=""/>
    <tripinfo id="141383_415_0" depart="25216.00" departLane="41910184_0" departPos="4.40" departSpeed="0.00" departDelay="0.00" arrival="25267.00" arrivalLane="4145589#0_0" arrivalPos="149.75" arrivalSpeed="6.91" duration="51.00" routeLength="368.38" waitingTime="1.00" waitingCount="1" stopTime="0.00" timeLoss="10.24" rerouteNo="0" devices="tripinfo_141383_415_0" vType="pkw" speedFactor="0.85" vaporized=""/>
    <tripinfo id="131963_410_0" depart="25223.00" departLane="-31800061#0_0" departPos="4.40" departSpeed="0.00" departDelay="0.00" arrival="25269.00" arrivalLane="-4999334_0" arrivalPos="293.22" arrivalSpeed="13.41" duration="46.00" routeLength="492.72" waitingTime="0.00" waitingCount="0" stopTime="0.00" timeLoss="6.93" rerouteNo="0" devices="tripinfo_131963_410_0" vType="pkw" speedFactor="1.05" vaporized=""/>
    <tripinfo id="161160_421_0" depart="25225.00" departLane="241660957#0_0" departPos="4.40" departSpeed="0.00" departDelay="0.00" arrival="25274.00" arrivalLane="4999331#0_0" arrivalPos="373.64" arrivalSpeed="14.80" duration="49.00" routeLength="489.64" waitingTime="3.00" waitingCount="1" stopTime="0.00" timeLoss="15.49" rerouteNo="0" devices="tripinfo_161160_421_0" vType="pkw" speedFactor="1.08" vaporized=""/>
    <tripinfo id="174028_427_0" depart="25233.00" departLane="319261593#12_0" departPos="4.40" departSpeed="0.00" departDelay="1.00" arrival="25275.00" arrivalLane="4145590#0_0" arrivalPos="95.58" arrivalSpeed="10.52" duration="42.00" routeLength="408.95" waitingTime="0.00" waitingCount="0" stopTime="0.00" timeLoss="6.25" rerouteNo="0" devices="tripinfo_174028_427_0" vType="pkw" speedFactor="0.83" vaporized=""/>
    <tripinfo id="140878_414_0" depart="25231.00" departLane="-130160207#0_0" departPos="4.40" departSpeed="0.00" departDelay="0.00" arrival="25276.00" arrivalLane="241660955#17_0" arrivalPos="110.13" arrivalSpeed="10.69" duration="45.00" routeLength="250.75" waitingTime="7.00" waitingCount="1" stopTime="0.00" timeLoss="15.18" rerouteNo="0" devices="tripinfo_140878_414_0" vType="pkw" speedFactor="0.83" vaporized=""/>
    <tripinfo id="120846_405_0" depart="25207.00" departLane="31864804_0" departPos="4.40" departSpeed="0.00" departDelay="0.00" arrival="25278.00" arrivalLane="-4999334_0" arrivalPos="293.22" arrivalSpeed="12.69" duration="71.00" routeLength="621.86" waitingTime="12.00" waitingCount="1" stopTime="0.00" timeLoss="25.10" rerouteNo="0" devices="tripinfo_120846_405_0" vType="pkw" speedFactor="0.99" vaporized=""/>
    <tripinfo id="163598_422_0" depart="25236.00" departLane="-130160207#0_0" departPos="4.40" departSpeed="0.00" departDelay="0.00" arrival="25278.00" arrivalLane="241660955#17_0" arrivalPos="110.13" arrivalSpeed="11.70" duration="42.00" routeLength="250.75" waitingTime="6.00" waitingCount="1" stopTime="0.00" timeLoss="14.79" rerouteNo="0" devices="tripinfo_163598_422_0" vType="pkw" speedFactor="0.92" vaporized=""/>
    <tripinfo id="81370_389_0" depart="25232.00" departLane="4045329#5_0" departPos="4.40" departSpeed="0.00" departDelay="1.00" arrival="25279.00" arrivalLane="-4045330_0" arrivalPos="128.76" arrivalSpeed="8.64" duration="47.00" routeLength="329.66" waitingTime="6.00" waitingCount="1" stopTime="0.00" timeLoss="17.07" rerouteNo="0" devices="tripinfo_81370_389_0" vType="pkw" speedFactor="1.04" vaporized=""/>
    <tripinfo id="166826_424_0" depart="25240.00" departLane="41910184_0" departPos="4.40" departSpeed="0.00" departDelay="0.00" arrival="25280.00" arrivalLane="4145589#0_0" arrivalPos="149.75" arrivalSpeed="8.15" duration="40.00" routeLength="368.38" waitingTime="0.00" waitingCount="0" stopTime="0.00" timeLoss="8.44" rerouteNo="0" devices="tripinfo_166826_424_0" vType="pkw" speedFactor="1.10" vaporized=""/>
    <tripinfo id="163366_422_0" depart="25253.00" departLane="-130160207#0_0" departPos="4.40" departSpeed="0.00" departDelay="0.00" arrival="25280.00" arrivalLane="241660955#17_0" arrivalPos="110.13" arrivalSpeed="14.29" duration="27.00" routeLength="250.75" waitingTime="0.00" waitingCount="0" stopTime="0.00" timeLoss="3.62" rerouteNo="0" devices="tripinfo_163366_422_0" vType="pkw" speedFactor="1.06" vaporized=""/>
    <tripinfo id="132705_410_0" depart="25200.00" departLane="-5229966#3_0" departPos="4.40" departSpeed="0.00" departDelay="0.00" arrival="25282.00" arrivalLane="4045332#0_0" arrivalPos="114.41" arrivalSpeed="7.29" duration="82.00" routeLength="721.22" waitingTime="11.00" waitingCount="1" stopTime="0.00" timeLoss="25.02" rerouteNo="0" devices="tripinfo_132705_410_0" vType="pkw" speedFactor="1.02" vaporized=""/>
    <tripinfo id="83081_390_0" depart="25228.00" departLane="31864804_0" departPos="4.40" departSpeed="0.00" departDelay="0.00" arrival="25286.00" arrivalLane="-4999334_0" arrivalPos="293.22" arrivalSpeed="12.63" duration="58.00" routeLength="688.22" waitingTime="0.00" waitingCount="0" stopTime="0.00" timeLoss="7.58" rerouteNo="0" devices="tripinfo_83081_390_0" vType="pkw" speedFactor="0.99" vaporized=""/>
    <tripinfo id="149066_417_0" depart="25235.00" departLane="31864804_0" departPos="4.40" departSpeed="0.00" departDelay="0.00" arrival="25286.00" arrivalLane="4999331#0_1" arrivalPos="373.64" arrivalSpeed="15.52" duration="51.00" routeLength="492.92" waitingTime="6.00" waitingCount="1" stopTime="0.00" timeLoss="20.35" rerouteNo="0" devices="tripinfo_149066_417_0" vType="pkw" speedFactor="1.19" vaporized=""/>
    <tripinfo id="158876_421_0" depart="25255.00" departLane="319261593#12_0" departPos="4.40" departSpeed="0.00" departDelay="0.00" arrival="25290.00" arrivalLane="-31864804_0" arrivalPos="70.23" arrivalSpeed="11.49" duration="35.00" routeLength="352.97" waitingTime="0.00" waitingCount="0" stopTime="0.00" timeLoss="6.54" rerouteNo="0" devices="tripinfo_158876_421_0" vType="pkw" speedFactor="0.92" vaporized=""/>
    <tripinfo id="161841_421_0" depart="25244.00" departLane="31864804_0" departPos="4.40" departSpeed="0.00" departDelay="0.00" arrival="25291.00" arrivalLane="4999331#0_0" arrivalPos="373.64" arrivalSpeed="13.13" duration="47.00" routeLength="492.92" waitingTime="0.00" waitingCount="0" stopTime="0.00" timeLoss="11.34" rerouteNo="0" devices="tripinfo_161841_421_0" vType="pkw" speedFactor="1.00" vaporized=""/>
    <tripinfo id="137478_412_0" depart="25248.00" departLane="4045330_0" departPos="4.40" departSpeed="0.00" departDelay="0.00" arrival="25292.00" arrivalLane="241660955#17_1" arrivalPos="110.13" arrivalSpeed="13.96" duration="44.00" routeLength="473.04" waitingTime="0.00" waitingCount="0" stopTime="0.00" timeLoss="6.48" rerouteNo="0" devices="tripinfo_137478_412_0" vType="pkw" speedFactor="1.07" vaporized=""/>
    <tripinfo id="111993_401_0" depart="25251.00" departLane="4045329#5_0" departPos="4.40" departSpeed="0.00" departDelay="0.00" arrival="25292.00" arrivalLane="41910185#0_0" arrivalPos="127.86" arrivalSpeed="8.27" duration="41.00" routeLength="267.37" waitingTime="7.00" waitingCount="1" stopTime="0.00" timeLoss="16.94" rerouteNo="0" devices="tripinfo_111993_401_0" vType="pkw" speedFactor="1.09" vaporized=""/>
    <tripinfo id="161578_421_0" depart="25266.00" departLane="-4999334_0" departPos="4.40" departSpeed="0.00" departDelay="3.00" arrival="25292.00" arrivalLane="-4999334_0" arrivalPos="293.22" arrivalSpeed="12.62" duration="26.00" routeLength="288.82" waitingTime="0.00" waitingCount="0" stopTime="0.00" timeLoss="4.09" rerouteNo="0" devices="tripinfo_161578_421_0" vType="pkw" speedFactor="0.96" vaporized=""/>
    <tripinfo id="141513_415_0" depart="25233.00" departLane="4999334_0" departPos="4.40" departSpeed="0.00" departDelay="0.00" arrival="25293.00" arrivalLane="4145590#0_1" arrivalPos="95.58" arrivalSpeed="13.59" duration="60.00" routeLength="615.60" waitingTime="1.00" waitingCount="1" stopTime="0.00" timeLoss="14.98" rerouteNo="0" devices="tripinfo_141513_415_0" vType="pkw" speedFactor="0.99" vaporized=""/>
    <tripinfo id="106913_399_0" depart="25201.00" departLane="31864804_0" departPos="4.40" departSpeed="0.00" departDelay="0.00" arrival="25294.00" arrivalLane="241660955#17_1" arrivalPos="110.13" arrivalSpeed="16.61" duration="93.00" routeLength="875.23" waitingTime="20.00" waitingCount="2" stopTime="0.00" timeLoss="40.38" rerouteNo="0" devices="tripinfo_106913_399_0" vType="pkw" speedFactor="1.21" vaporized=""/>
    <tripinfo id="168647_425_0" depart="25269.00" departLane="-4999334_0" departPos="4.40" departSpeed="0.00" departDelay="3.00" arrival="25294.00" arrivalLane="-4999334_0" arrivalPos="293.22" arrivalSpeed="13.95" duration="25.00" routeLength="288.82" waitingTime="0.00" waitingCount="0" stopTime="0.00" timeLoss="4.25" rerouteNo="0" devices="tripinfo_168647_425_0" vType="pkw" speedFactor="1.04" vaporized=""/>
    <tripinfo id="100929_396_0" depart="25233.00" departLane="-5229966#3_0" departPos="4.40" departSpeed="0.00" departDelay="0.00" arrival="25295.00" arrivalLane="4145590#0_0" arrivalPos="95.58" arrivalSpeed="12.14" duration="62.00" routeLength="453.70" waitingTime="14.00" waitingCount="1" stopTime="0.00" timeLoss="25.78" rerouteNo="0" devices="tripinfo_100929_396_0" vType="pkw" speedFactor="0.92" vaporized=""/>
    <tripinfo id="85241_390_0" depart="25242.00" departLane="41910184_0" departPos="4.40" departSpeed="0.00" departDelay="0.00" arrival="25295.00" arrivalLane="241660955#17_0" arrivalPos="110.13" arrivalSpeed="13.06" duration="53.00" routeLength="451.07" waitingTime="6.00" waitingCount="1" stopTime="0.00" timeLoss="18.94" rerouteNo="0" devices="tripinfo_85241_390_0" vType="pkw" speedFactor="0.95" vaporized=""/>
    <tripinfo id="150954_418_0" depart="25249.00" departLane="-130160207#0_0" departPos="4.40" departSpeed="0.00" departDelay="0.00" arrival="25296.00" arrivalLane="-41910184_0" arrivalPos="185.90" arrivalSpeed="13.21" duration="47.00" routeLength="470.87" waitingTime="0.00" waitingCount="0" stopTime="0.00" timeLoss="5.30" rerouteNo="0" devices="tripinfo_150954_418_0" vType="pkw" speedFactor="0.97" vaporized=""/>
    <tripinfo id="148720_417_0" depart="25231.00" departLane="31864804_0" departPos="4.40" departSpeed="0.00" departDelay="2.00" arrival="25298.00" arrivalLane="-41910184_0" arrivalPos="185.90" arrivalSpeed="13.78" duration="67.00" routeLength="811.95" waitingTime="0.00" waitingCount="0" stopTime="0.00" timeLoss="10.80" rerouteNo="0" devices="tripinfo_148720_417_0" vType="pkw" speedFactor="1.05" vaporized=""/>
    <tripinfo id="134770_411_0" depart="25235.00" departLane="-31800061#0_0" departPos="4.40" departSpeed="0.00" departDelay="0.00" arrival="25299.00" arrivalLane="-41910184_0" arrivalPos="185.90" arrivalSpeed="14.98" duration="64.00" routeLength="682.81" waitingTime="0.00" waitingCount="0" stopTime="0.00" timeLoss="17.32" rerouteNo="0" devices="tripinfo_134770_411_0" vType="pkw" speedFactor="1.16" vaporized=""/>
    <tripinfo id="155750_420_0" depart="25256.00" departLane="-130160207#0_0" departPos="4.40" departSpeed="0.00" departDelay="0.00" arrival="25307.00" arrivalLane="241660955#17_0" arrivalPos="110.13" arrivalSpeed="9.65" duration="51.00" routeLength="250.75" waitingTime="8.00" waitingCount="1" stopTime="0.00" timeLoss="17.26" rerouteNo="0" devices="tripinfo_155750_420_0" vType="pkw" speedFactor="0.73" vaporized=""/>
    <tripinfo id="149951_417_0" depart="25274.00" departLane="-130160207#0_0" departPos="4.40" departSpeed="0.00" departDelay="0.00" arrival="25309.00" arrivalLane="241660955#17_0" arrivalPos="110.13" arrivalSpeed="13.38" duration="35.00" routeLength="250.75" waitingTime="2.00" waitingCount="1" stopTime="0.00" timeLoss="11.14" rerouteNo="0" devices="tripinfo_149951_417_0" vType="pkw" speedFactor="1.04" vaporized=""/>
    <tripinfo id="100301_396_0" depart="25260.00" departLane="-241660955#17_0" departPos="4.40" departSpeed="0.00" departDelay="0.00" arrival="25310.00" arrivalLane="130160207#0_0" arrivalPos="135.18" arrivalSpeed="7.38" duration="50.00" routeLength="257.86" waitingTime="8.00" waitingCount="2" stopTime="0.00" timeLoss="21.32" rerouteNo="0" devices="tripinfo_100301_396_0" vType="pkw" speedFactor="0.92" vaporized=""/>
    <tripinfo id="155359_420_0" depart="25288.00" departLane="31864804_0" departPos="4.40" departSpeed="0.00" departDelay="0.00" arrival="25310.00" arrivalLane="-31864804_1" arrivalPos="70.23" arrivalSpeed="13.39" duration="22.00" routeLength="140.71" waitingTime="2.00" waitingCount="1" stopTime="0.00" timeLoss="11.05" rerouteNo="0" devices="tripinfo_155359_420_0" vType="pkw" speedFactor="0.99" vaporized=""/>
    <tripinfo id="173797_427_0" depart="25226.00" departLane="-41910186_0" departPos="4.40" departSpeed="0.00" departDelay="0.00" arrival="25312.00" arrivalLane="4145590#0_1" arrivalPos="95.58" arrivalSpeed="11.67" duration="86.00" routeLength="894.77" waitingTime="4.00" waitingCount="1" stopTime="0.00" timeLoss="15.67" rerouteNo="0" devices="tripinfo_173797_427_0" vType="pkw" speedFactor="0.93" vaporized=""/>
    <tripinfo id="76573_386_0" depart="25275.00" departLane="-241660955#17_0" departPos="4.40" departSpeed="0.00" departDelay="0.00" arrival="25312.00" arrivalLane="130160207#0_0" arrivalPos="135.18" arrivalSpeed="7.15" duration="37.00" routeLength="257.86" waitingTime="0.00" waitingCount="0" stopTime="0.00" timeLoss="9.53" rerouteNo="0" devices="tripinfo_76573_386_0" vType="pkw" speedFactor="0.96" vaporized=""/>
    <tripinfo id="153704_420_0" depart="25240.00" departLane="-31800061#0_0" departPos="4.40" departSpeed="0.00" departDelay="0.00" arrival="25314.00" arrivalLane="-41910184_0" arrivalPos="185.90" arrivalSpeed="13.74" duration="74.00" routeLength="682.81" waitingTime="11.00" waitingCount="1" stopTime="0.00" timeLoss="21.29" rerouteNo="0" devices="tripinfo_153704_420_0" vType="pkw" speedFactor="1.04" vaporized=""/>
    <tripinfo id="71667_383_0" depart="25276.00" departLane="241660957#0_0" departPos="4.40" departSpeed="0.00" departDelay="0.00" arrival="25316.00" arrivalLane="4999331#0_1" arrivalPos="373.64" arrivalSpeed="14.29" duration="40.00" routeLength="489.64" waitingTime="0.00" waitingCount="0" stopTime="0.00" timeLoss="7.15" rerouteNo="0" devices="tripinfo_71667_383_0" vType="pkw" speedFactor="1.08" vaporized=""/>
    <tripinfo id="163790_422_0" depart="25264.00" departLane="-130160207#0_0" departPos="4.40" departSpeed="0.00" departDelay="0.00" arrival="25317.00" arrivalLane="130160207#0_0" arrivalPos="135.18" arrivalSpeed="7.15" duration="53.00" routeLength="270.63" waitingTime="7.00" waitingCount="1" stopTime="0.00" timeLoss="15.64" rerouteNo="0" devices="tripinfo_163790_422_0" vType="pkw" speedFactor="0.88" vaporized=""/>
    <tripinfo id="160813_421_0" depart="25253.00" departLane="41910184_0" departPos="4.40" departSpeed="0.00" departDelay="0.00" arrival="25318.00" arrivalLane="4145589#0_0" arrivalPos="149.75" arrivalSpeed="5.34" duration="65.00" routeLength="368.38" waitingTime="8.00" waitingCount="1" stopTime="0.00" timeLoss="20.56" rerouteNo="0" devices="tripinfo_160813_421_0" vType="pkw" speedFactor="0.78" vaporized=""/>
    <tripinfo id="157767_421_0" depart="25269.00" departLane="31864804_0" departPos="4.40" departSpeed="0.00" departDelay="0.00" arrival="25318.00" arrivalLane="-41910186_0" arrivalPos="324.50" arrivalSpeed="13.39" duration="49.00" routeLength="571.64" waitingTime="0.00" waitingCount="0" stopTime="0.00" timeLoss="6.43" rerouteNo="0" devices="tripinfo_157767_421_0" vType="pkw" speedFactor="0.99" vaporized=""/>
    <tripinfo id="123109_406_0" depart="25260.00" departLane="241660957#0_0" departPos="4.40" departSpeed="0.00" departDelay="0.00" arrival="25319.00" arrivalLane="4999331#0_0" arrivalPos="373.64" arrivalSpeed="11.76" duration="59.00" routeLength="489.64" waitingTime="9.00" waitingCount="1" stopTime="0.00" timeLoss="19.24" rerouteNo="0" devices="tripinfo_123109_406_0" vType="pkw" speedFactor="0.90" vaporized=""/>
    <tripinfo id="153005_419_0" depart="25270.00" departLane="41910184_0" departPos="4.40" departSpeed="0.00" departDelay="0.00" arrival="25319.00" arrivalLane="4145589#0_0" arrivalPos="149.75" arrivalSpeed="7.74" duration="49.00" routeLength="368.38" waitingTime="0.00" waitingCount="0" stopTime="0.00" timeLoss="17.16" rerouteNo="0" devices="tripinfo_153005_419_0" vType="pkw" speedFactor="1.07" vaporized=""/>
    <tripinfo id="79538_387_0" depart="25216.00" departLane="-5229966#3_0" departPos="4.40" departSpeed="0.00" departDelay="1.00" arrival="25321.00" arrivalLane="4999331#0_1" arrivalPos="373.64" arrivalSpeed="12.11" duration="105.00" routeLength="731.93" waitingTime="30.00" waitingCount="3" stopTime="0.00" timeLoss="49.33" rerouteNo="0" devices="tripinfo_79538_387_0" vType="pkw" speedFactor="0.95" vaporized=""/>
    <tripinfo id="67548_381_0" depart="25289.00" departLane="-41910185#2_0" departPos="4.40" departSpeed="0.00" departDelay="1.00" arrival="25324.00" arrivalLane="241660955#10_0" arrivalPos="56.57" arrivalSpeed="13.05" duration="35.00" routeLength="191.84" waitingTime="6.00" waitingCount="1" stopTime="0.00" timeLoss="15.82" rerouteNo="0" devices="tripinfo_67548_381_0" vType="pkw" speedFactor="1.03" vaporized=""/>
    <tripinfo id="125978_406_0" depart="25249.00" departLane="-5229966#3_0" departPos="4.40" departSpeed="0.00" departDelay="0.00" arrival="25325.00" arrivalLane="4145590#0_0" arrivalPos="95.58" arrivalSpeed="12.67" duration="76.00" routeLength="453.70" waitingTime="26.00" waitingCount="2" stopTime="0.00" timeLoss="41.16" rerouteNo="0" devices="tripinfo_125978_406_0" vType="pkw" speedFactor="0.96" vaporized=""/>
    <tripinfo id="149148_417_0" depart="25279.00" departLane="-130160207#0_0" departPos="4.40" departSpeed="0.00" departDelay="0.00" arrival="25326.00" arrivalLane="-41910184_0" arrivalPos="185.90" arrivalSpeed="13.04" duration="47.00" routeLength="470.87" waitingTime="0.00" waitingCount="0" stopTime="0.00" timeLoss="7.11" rerouteNo="0" devices="tripinfo_149148_417_0" vType="pkw" speedFactor="1.02" vaporized=""/>
    <tripinfo id="150860_418_0" depart="25276.00" departLane="31864804_0" departPos="4.40" departSpeed="0.00" departDelay="0.00" arrival="25328.00" arrivalLane="4999331#0_1" arrivalPos="373.64" arrivalSpeed="15.86" duration="52.00" routeLength="492.92" waitingTime="10.00" waitingCount="1" stopTime="0.00" timeLoss="21.11" rerouteNo="0" devices="tripinfo_150860_418_0" vType="pkw" speedFactor="1.15" vaporized=""/>
    <tripinfo id="168091_425_0" depart="25282.00" departLane="-130160207#0_0" departPos="4.40" departSpeed="0.00" departDelay="1.00" arrival="25328.00" arrivalLane="-41910184_0" arrivalPos="185.90" arrivalSpeed="13.43" duration="46.00" routeLength="470.87" waitingTime="0.00" waitingCount="0" stopTime="0.00" timeLoss="6.89" rerouteNo="0" devices="tripinfo_168091_425_0" vType="pkw" speedFactor="1.05" vaporized=""/>
    <tripinfo id="126562_407_0" depart="25263.00" departLane="241660957#0_0" departPos="4.40" departSpeed="0.00" departDelay="1.00" arrival="25329.00" arrivalLane="4999331#0_0" arrivalPos="373.64" arrivalSpeed="8.31" duration="66.00" routeLength="489.64" waitingTime="4.00" waitingCount="1" stopTime="0.00" timeLoss="14.47" rerouteNo="0" devices="tripinfo_126562_407_0" vType="pkw" speedFactor="0.69" vaporized=""/>
    <tripinfo id="104671_398_0" depart="25286.00" departLane="-41910185#2_0" departPos="4.40" departSpeed="0.00" departDelay="0.00" arrival="25330.00" arrivalLane="241660955#11_0" arrivalPos="73.18" arrivalSpeed="12.44" duration="44.00" routeLength="279.28" waitingTime="8.00" waitingCount="1" stopTime="0.00" timeLoss="15.99" rerouteNo="0" devices="tripinfo_104671_398_0" vType="pkw" speedFactor="0.96" vaporized=""/>
    <tripinfo id="144088_416_0" depart="25303.00" departLane="241660955#6_0" departPos="4.40" departSpeed="0.00" departDelay="0.00" arrival="25332.00" arrivalLane="-4999334_0" arrivalPos="293.22" arrivalSpeed="15.42" duration="29.00" routeLength="357.51" waitingTime="0.00" waitingCount="0" stopTime="0.00" timeLoss="5.72" rerouteNo="0" devices="tripinfo_144088_416_0" vType="pkw" speedFactor="1.14" vaporized=""/>
    <tripinfo id="165473_423_0" depart="25267.00" departLane="41910186_0" departPos="4.40" departSpeed="0.00" departDelay="0.00" arrival="25333.00" arrivalLane="-31864804_1" arrivalPos="70.23" arrivalSpeed="17.23" duration="66.00" routeLength="565.92" waitingTime="18.00" waitingCount="1" stopTime="0.00" timeLoss="34.63" rerouteNo="0" devices="tripinfo_165473_423_0" vType="pkw" speedFactor="1.30" vaporized=""/>
    <tripinfo id="143042_415_0" depart="25300.00" departLane="31864804_0" departPos="4.40" departSpeed="0.00" departDelay="0.00" arrival="25333.00" arrivalLane="4145590#0_0" arrivalPos="95.58" arrivalSpeed="13.06" duration="33.00" routeLength="195.56" waitingTime="10.00" waitingCount="1" stopTime="0.00" timeLoss="18.60" rerouteNo="0" devices="tripinfo_143042_415_0" vType="pkw" speedFactor="0.99" vaporized=""/>
    <tripinfo id="147095_416_0" depart="25300.00" departLane="-130160207#0_0" departPos="4.40" departSpeed="0.00" departDelay="0.00" arrival="25335.00" arrivalLane="241660955#17_0" arrivalPos="110.13" arrivalSpeed="13.36" duration="35.00" routeLength="250.75" waitingTime="1.00" waitingCount="1" stopTime="0.00" timeLoss="9.97" rerouteNo="0" devices="tripinfo_147095_416_0" vType="pkw" speedFactor="1.00" vaporized=""/>
    <tripinfo id="118681_405_0" depart="25237.00" departLane="4999334_0" departPos="4.40" departSpeed="0.00" departDelay="0.00" arrival="25336.00" arrivalLane="-31864804_0" arrivalPos="70.23" arrivalSpeed="11.57" duration="99.00" routeLength="615.92" waitingTime="37.00" waitingCount="1" stopTime="0.00" timeLoss="48.56" rerouteNo="0" devices="tripinfo_118681_405_0" vType="pkw" speedFactor="0.89" vaporized=""/>