<?xml version="1.0" encoding="UTF-8"?>

<!-- generated on 2025-03-11 22:31:52 by Eclipse SUMO sumo Version 1.22.0
<sumoConfiguration xmlns:xsi="http://www.w3.org/2001/XMLSchema-instance" xsi:noNamespaceSchemaLocation="http://sumo.dlr.de/xsd/sumoConfiguration.xsd">

    <input>
        <net-file value="/home/mansour/project/Traffic_signal_control/RESCO/resco_benchmark/environments/cologne3/cologne3.net.xml"/>
        <route-files value="/home/mansour/project/Traffic_signal_control/RESCO/resco_benchmark/environments/cologne3/cologne3.rou.xml"/>
    </input>

    <output>
        <tripinfo-output value="/home/mansour/project/Traffic_signal_control/RESCO/results/IDQN-tr0-cologne3-0-drq_norm-wait_norm/tripinfo_73.xml"/>
        <tripinfo-output.write-unfinished value="true"/>
    </output>

    <time>
        <begin value="25200"/>
        <end value="28800"/>
    </time>

    <processing>
        <time-to-teleport value="-1"/>
    </processing>

    <report>
        <no-warnings value="True"/>
        <no-step-log value="True"/>
    </report>

    <traci_server>
        <remote-port value="59885"/>
    </traci_server>

    <random_number>
        <random value="true"/>
    </random_number>

</sumoConfiguration>
-->

<tripinfos xmlns:xsi="http://www.w3.org/2001/XMLSchema-instance" xsi:noNamespaceSchemaLocation="http://sumo.dlr.de/xsd/tripinfo_file.xsd">
    <tripinfo id="160296_421_0" depart="25211.00" departLane="241660955#13_0" departPos="4.40" departSpeed="0.00" departDelay="0.00" arrival="25235.00" arrivalLane="241660955#17_0" arrivalPos="110.13" arrivalSpeed="12.18" duration="24.00" routeLength="247.24" waitingTime="0.00" waitingCount="0" stopTime="0.00" timeLoss="4.14" rerouteNo="0" devices="tripinfo_160296_421_0" vType="pkw" speedFactor="0.93" vaporized=""/>
    <tripinfo id="122325_406_0" depart="25208.00" departLane="319261593#12_0" departPos="4.40" departSpeed="0.00" departDelay="0.00" arrival="25240.00" arrivalLane="-31864804_0" arrivalPos="70.23" arrivalSpeed="15.22" duration="32.00" routeLength="352.97" waitingTime="0.00" waitingCount="0" stopTime="0.00" timeLoss="9.79" rerouteNo="0" devices="tripinfo_122325_406_0" vType="pkw" speedFactor="1.15" vaporized=""/>
    <tripinfo id="73223_384_0" depart="25204.00" departLane="241660957#0_0" departPos="4.40" departSpeed="0.00" departDelay="0.00" arrival="25247.00" arrivalLane="4999331#0_0" arrivalPos="373.64" arrivalSpeed="16.09" duration="43.00" routeLength="489.64" waitingTime="1.00" waitingCount="1" stopTime="0.00" timeLoss="13.67" rerouteNo="0" devices="tripinfo_73223_384_0" vType="pkw" speedFactor="1.24" vaporized=""/>
    <tripinfo id="169122_425_0" depart="25229.00" departLane="-4999334_0" departPos="4.40" departSpeed="0.00" departDelay="1.00" arrival="25252.00" arrivalLane="-4999334_0" arrivalPos="293.22" arrivalSpeed="14.19" duration="23.00" routeLength="288.82" waitingTime="0.00" waitingCount="0" stopTime="0.00" timeLoss="4.01" rerouteNo="0" devices="tripinfo_169122_425_0" vType="pkw" speedFactor="1.10" vaporized=""/>
    <tripinfo id="132667_410_0" depart="25212.00" departLane="-31800061#0_0" departPos="4.40" departSpeed="0.00" departDelay="0.00" arrival="25260.00" arrivalLane="-4999334_0" arrivalPos="293.22" arrivalSpeed="13.70" duration="48.00" routeLength="492.72" waitingTime="0.00" waitingCount="0" stopTime="0.00" timeLoss="8.49" rerouteNo="0" devices="tripinfo_132667_410_0" vType="pkw" speedFactor="1.04" vaporized=""/>
    <tripinfo id="132022_410_0" depart="25213.00" departLane="241660957#0_0" departPos="4.40" departSpeed="0.00" departDelay="0.00" arrival="25263.00" arrivalLane="4999331#0_0" arrivalPos="373.64" arrivalSpeed="14.73" duration="50.00" routeLength="489.64" waitingTime="6.00" waitingCount="1" stopTime="0.00" timeLoss="17.00" rerouteNo="0" devices="tripinfo_132022_410_0" vType="pkw" speedFactor="1.09" vaporized=""/>
    <tripinfo id="153968_420_0" depart="25227.00" departLane="319261593#12_0" departPos="4.40" departSpeed="0.00" departDelay="0.00" arrival="25263.00" arrivalLane="-31864804_0" arrivalPos="70.23" arrivalSpeed="11.43" duration="36.00" routeLength="352.97" waitingTime="0.00" waitingCount="0" stopTime="0.00" timeLoss="4.92" rerouteNo="0" devices="tripinfo_153968_420_0" vType="pkw" speedFactor="0.84" vaporized=""/>
    <tripinfo id="163719_422_0" depart="25211.00" departLane="4045330_0" departPos="4.40" departSpeed="0.00" departDelay="0.00" arrival="25264.00" arrivalLane="241660955#17_1" arrivalPos="110.13" arrivalSpeed="11.56" duration="53.00" routeLength="473.04" waitingTime="0.00" waitingCount="0" stopTime="0.00" timeLoss="7.46" rerouteNo="0" devices="tripinfo_163719_422_0" vType="pkw" speedFactor="0.89" vaporized=""/>
    <tripinfo id="73303_385_0" depart="25202.00" departLane="319261593#12_0" departPos="4.40" departSpeed="0.00" departDelay="0.00" arrival="25265.00" arrivalLane="4145590#0_0" arrivalPos="95.58" arrivalSpeed="11.77" duration="63.00" routeLength="408.95" waitingTime="14.00" waitingCount="1" stopTime="0.00" timeLoss="29.69" rerouteNo="0" devices="tripinfo_73303_385_0" vType="pkw" speedFactor="0.90" vaporized=""/>
    <tripinfo id="113109_402_0" depart="25203.00" departLane="4999334_0" departPos="4.40" departSpeed="0.00" departDelay="0.00" arrival="25265.00" arrivalLane="-31864804_0" arrivalPos="70.23" arrivalSpeed="13.86" duration="62.00" routeLength="615.92" waitingTime="5.00" waitingCount="1" stopTime="0.00" timeLoss="19.09" rerouteNo="0" devices="tripinfo_113109_402_0" vType="pkw" speedFactor="1.05" vaporized=""/>
    <tripinfo id="161160_421_0" depart="25225.00" departLane="241660957#0_0" departPos="4.40" departSpeed="0.00" departDelay="0.00" arrival="25266.00" arrivalLane="4999331#0_0" arrivalPos="373.64" arrivalSpeed="12.96" duration="41.00" routeLength="489.64" waitingTime="0.00" waitingCount="0" stopTime="0.00" timeLoss="5.14" rerouteNo="0" devices="tripinfo_161160_421_0" vType="pkw" speedFactor="1.00" vaporized=""/>
    <tripinfo id="98545_395_0" depart="25206.00" departLane="4045330_0" departPos="4.40" departSpeed="0.00" departDelay="0.00" arrival="25267.00" arrivalLane="241660955#17_0" arrivalPos="110.13" arrivalSpeed="9.83" duration="61.00" routeLength="473.04" waitingTime="0.00" waitingCount="0" stopTime="0.00" timeLoss="10.02" rerouteNo="0" devices="tripinfo_98545_395_0" vType="pkw" speedFactor="0.80" vaporized=""/>
    <tripinfo id="120846_405_0" depart="25207.00" departLane="31864804_0" departPos="4.40" departSpeed="0.00" departDelay="0.00" arrival="25267.00" arrivalLane="-4999334_0" arrivalPos="293.22" arrivalSpeed="13.59" duration="60.00" routeLength="621.86" waitingTime="2.00" waitingCount="1" stopTime="0.00" timeLoss="14.89" rerouteNo="0" devices="tripinfo_120846_405_0" vType="pkw" speedFactor="0.99" vaporized=""/>
    <tripinfo id="157649_421_0" depart="25229.00" departLane="319261593#12_0" departPos="4.40" departSpeed="0.00" departDelay="0.00" arrival="25269.00" arrivalLane="-31864804_0" arrivalPos="70.23" arrivalSpeed="12.78" duration="40.00" routeLength="352.97" waitingTime="0.00" waitingCount="0" stopTime="0.00" timeLoss="13.69" rerouteNo="0" devices="tripinfo_157649_421_0" vType="pkw" speedFactor="0.99" vaporized=""/>
    <tripinfo id="68266_381_0" depart="25229.00" departLane="4045329#5_0" departPos="4.40" departSpeed="0.00" departDelay="0.00" arrival="25273.00" arrivalLane="41910185#0_0" arrivalPos="127.86" arrivalSpeed="6.19" duration="44.00" routeLength="267.37" waitingTime="2.00" waitingCount="1" stopTime="0.00" timeLoss="12.99" rerouteNo="0" devices="tripinfo_68266_381_0" vType="pkw" speedFactor="0.85" vaporized=""/>
    <tripinfo id="131963_410_0" depart="25223.00" departLane="-31800061#0_0" departPos="4.40" departSpeed="0.00" departDelay="0.00" arrival="25274.00" arrivalLane="-4999334_0" arrivalPos="293.22" arrivalSpeed="13.39" duration="51.00" routeLength="492.72" waitingTime="0.00" waitingCount="0" stopTime="0.00" timeLoss="10.92" rerouteNo="0" devices="tripinfo_131963_410_0" vType="pkw" speedFactor="1.01" vaporized=""/>
    <tripinfo id="140878_414_0" depart="25231.00" departLane="-130160207#0_0" departPos="4.40" departSpeed="0.00" departDelay="0.00" arrival="25276.00" arrivalLane="241660955#17_0" arrivalPos="110.13" arrivalSpeed="11.66" duration="45.00" routeLength="250.75" waitingTime="8.00" waitingCount="1" stopTime="0.00" timeLoss="16.36" rerouteNo="0" devices="tripinfo_140878_414_0" vType="pkw" speedFactor="0.88" vaporized=""/>
    <tripinfo id="163598_422_0" depart="25236.00" departLane="-130160207#0_0" departPos="4.40" departSpeed="0.00" departDelay="0.00" arrival="25277.00" arrivalLane="241660955#17_0" arrivalPos="110.13" arrivalSpeed="12.15" duration="41.00" routeLength="250.75" waitingTime="7.00" waitingCount="1" stopTime="0.00" timeLoss="14.60" rerouteNo="0" devices="tripinfo_163598_422_0" vType="pkw" speedFactor="0.93" vaporized=""/>
    <tripinfo id="163366_422_0" depart="25253.00" departLane="-130160207#0_0" departPos="4.40" departSpeed="0.00" departDelay="0.00" arrival="25280.00" arrivalLane="241660955#17_0" arrivalPos="110.13" arrivalSpeed="13.22" duration="27.00" routeLength="250.75" waitingTime="0.00" waitingCount="0" stopTime="0.00" timeLoss="3.91" rerouteNo="0" devices="tripinfo_163366_422_0" vType="pkw" speedFactor="1.04" vaporized=""/>
    <tripinfo id="155750_420_0" depart="25256.00" departLane="-130160207#0_0" departPos="4.40" departSpeed="0.00" departDelay="0.00" arrival="25282.00" arrivalLane="241660955#17_0" arrivalPos="110.13" arrivalSpeed="14.79" duration="26.00" routeLength="250.75" waitingTime="0.00" waitingCount="0" stopTime="0.00" timeLoss="3.40" rerouteNo="0" devices="tripinfo_155750_420_0" vType="pkw" speedFactor="1.08" vaporized=""/>
    <tripinfo id="111294_401_0" depart="25211.00" departLane="-5229966#3_0" departPos="4.40" departSpeed="0.00" departDelay="0.00" arrival="25284.00" arrivalLane="4145590#0_0" arrivalPos="95.58" arrivalSpeed="14.21" duration="73.00" routeLength="453.70" waitingTime="24.00" waitingCount="2" stopTime="0.00" timeLoss="41.87" rerouteNo="0" devices="tripinfo_111294_401_0" vType="pkw" speedFactor="1.06" vaporized=""/>
    <tripinfo id="118698_405_0" depart="25214.00" departLane="-5229966#3_0" departPos="4.40" departSpeed="0.00" departDelay="1.00" arrival="25284.00" arrivalLane="4145590#0_1" arrivalPos="95.58" arrivalSpeed="15.59" duration="70.00" routeLength="453.70" waitingTime="19.00" waitingCount="2" stopTime="0.00" timeLoss="42.10" rerouteNo="0" devices="tripinfo_118698_405_0" vType="pkw" speedFactor="1.19" vaporized=""/>
    <tripinfo id="100929_396_0" depart="25233.00" departLane="-5229966#3_0" departPos="4.40" departSpeed="0.00" departDelay="0.00" arrival="25286.00" arrivalLane="4145590#0_0" arrivalPos="95.58" arrivalSpeed="12.95" duration="53.00" routeLength="453.70" waitingTime="3.00" waitingCount="1" stopTime="0.00" timeLoss="20.01" rerouteNo="0" devices="tripinfo_100929_396_0" vType="pkw" speedFactor="1.00" vaporized=""/>
    <tripinfo id="158876_421_0" depart="25255.00" departLane="319261593#12_0" departPos="4.40" departSpeed="0.00" departDelay="0.00" arrival="25286.00" arrivalLane="-31864804_0" arrivalPos="70.23" arrivalSpeed="14.65" duration="31.00" routeLength="352.97" waitingTime="0.00" waitingCount="0" stopTime="0.00" timeLoss="6.03" rerouteNo="0" devices="tripinfo_158876_421_0" vType="pkw" speedFactor="1.06" vaporized=""/>
    <tripinfo id="111993_401_0" depart="25251.00" departLane="4045329#5_0" departPos="4.40" departSpeed="0.00" departDelay="0.00" arrival="25287.00" arrivalLane="41910185#0_0" arrivalPos="127.86" arrivalSpeed="7.55" duration="36.00" routeLength="267.37" waitingTime="0.00" waitingCount="0" stopTime="0.00" timeLoss="7.03" rerouteNo="0" devices="tripinfo_111993_401_0" vType="pkw" speedFactor="0.92" vaporized=""/>
    <tripinfo id="125978_406_0" depart="25249.00" departLane="-5229966#3_0" departPos="4.40" departSpeed="0.00" departDelay="0.00" arrival="25288.00" arrivalLane="4145590#0_0" arrivalPos="95.58" arrivalSpeed="13.30" duration="39.00" routeLength="453.70" waitingTime="0.00" waitingCount="0" stopTime="0.00" timeLoss="6.80" rerouteNo="0" devices="tripinfo_125978_406_0" vType="pkw" speedFactor="1.03" vaporized=""/>
    <tripinfo id="161578_421_0" depart="25263.00" departLane="-4999334_0" departPos="4.40" departSpeed="0.00" departDelay="0.00" arrival="25288.00" arrivalLane="-4999334_0" arrivalPos="293.22" arrivalSpeed="13.81" duration="25.00" routeLength="288.82" waitingTime="0.00" waitingCount="0" stopTime="0.00" timeLoss="4.59" rerouteNo="0" devices="tripinfo_161578_421_0" vType="pkw" speedFactor="1.04" vaporized=""/>
    <tripinfo id="81370_389_0" depart="25232.00" departLane="4045329#5_0" departPos="4.40" departSpeed="0.00" departDelay="1.00" arrival="25290.00" arrivalLane="-4045330_0" arrivalPos="128.76" arrivalSpeed="7.66" duration="58.00" routeLength="329.66" waitingTime="14.00" waitingCount="2" stopTime="0.00" timeLoss="25.59" rerouteNo="0" devices="tripinfo_81370_389_0" vType="pkw" speedFactor="0.95" vaporized=""/>
    <tripinfo id="149066_417_0" depart="25235.00" departLane="31864804_0" departPos="4.40" departSpeed="0.00" departDelay="0.00" arrival="25292.00" arrivalLane="4999331#0_0" arrivalPos="373.64" arrivalSpeed="12.13" duration="57.00" routeLength="492.92" waitingTime="8.00" waitingCount="1" stopTime="0.00" timeLoss="18.99" rerouteNo="0" devices="tripinfo_149066_417_0" vType="pkw" speedFactor="0.94" vaporized=""/>
    <tripinfo id="161841_421_0" depart="25244.00" departLane="31864804_0" departPos="4.40" departSpeed="0.00" departDelay="0.00" arrival="25292.00" arrivalLane="4999331#0_1" arrivalPos="373.64" arrivalSpeed="13.88" duration="48.00" routeLength="492.92" waitingTime="1.00" waitingCount="1" stopTime="0.00" timeLoss="13.81" rerouteNo="0" devices="tripinfo_161841_421_0" vType="pkw" speedFactor="1.05" vaporized=""/>
    <tripinfo id="174028_427_0" depart="25232.00" departLane="319261593#12_0" departPos="4.40" departSpeed="0.00" departDelay="0.00" arrival="25294.00" arrivalLane="4145590#0_0" arrivalPos="95.58" arrivalSpeed="13.55" duration="62.00" routeLength="408.95" waitingTime="14.00" waitingCount="1" stopTime="0.00" timeLoss="31.58" rerouteNo="0" devices="tripinfo_174028_427_0" vType="pkw" speedFactor="0.98" vaporized=""/>
    <tripinfo id="118681_405_0" depart="25237.00" departLane="4999334_0" departPos="4.40" departSpeed="0.00" departDelay="0.00" arrival="25294.00" arrivalLane="-31864804_0" arrivalPos="70.23" arrivalSpeed="15.55" duration="57.00" routeLength="615.92" waitingTime="2.00" waitingCount="1" stopTime="0.00" timeLoss="17.51" rerouteNo="0" devices="tripinfo_118681_405_0" vType="pkw" speedFactor="1.12" vaporized=""/>
    <tripinfo id="150954_418_0" depart="25249.00" departLane="-130160207#0_0" departPos="4.40" departSpeed="0.00" departDelay="0.00" arrival="25295.00" arrivalLane="-41910184_0" arrivalPos="185.90" arrivalSpeed="12.58" duration="46.00" routeLength="470.87" waitingTime="0.00" waitingCount="0" stopTime="0.00" timeLoss="4.57" rerouteNo="0" devices="tripinfo_150954_418_0" vType="pkw" speedFactor="0.98" vaporized=""/>
    <tripinfo id="168647_425_0" depart="25266.00" departLane="-4999334_0" departPos="4.40" departSpeed="0.00" departDelay="0.00" arrival="25295.00" arrivalLane="-4999334_0" arrivalPos="293.22" arrivalSpeed="11.32" duration="29.00" routeLength="288.82" waitingTime="0.00" waitingCount="0" stopTime="0.00" timeLoss="3.43" rerouteNo="0" devices="tripinfo_168647_425_0" vType="pkw" speedFactor="0.82" vaporized=""/>
    <tripinfo id="83081_390_0" depart="25228.00" departLane="31864804_0" departPos="4.40" departSpeed="0.00" departDelay="0.00" arrival="25297.00" arrivalLane="-4999334_0" arrivalPos="293.22" arrivalSpeed="15.77" duration="69.00" routeLength="688.22" waitingTime="12.00" waitingCount="1" stopTime="0.00" timeLoss="27.44" rerouteNo="0" devices="tripinfo_83081_390_0" vType="pkw" speedFactor="1.20" vaporized=""/>
    <tripinfo id="132705_410_0" depart="25200.00" departLane="-5229966#3_0" departPos="4.40" departSpeed="0.00" departDelay="0.00" arrival="25298.00" arrivalLane="4045332#0_0" arrivalPos="114.41" arrivalSpeed="8.21" duration="98.00" routeLength="720.54" waitingTime="28.00" waitingCount="1" stopTime="0.00" timeLoss="43.44" rerouteNo="0" devices="tripinfo_132705_410_0" vType="pkw" speedFactor="1.07" vaporized=""/>
    <tripinfo id="79538_387_0" depart="25216.00" departLane="-5229966#3_0" departPos="4.40" departSpeed="0.00" departDelay="1.00" arrival="25298.00" arrivalLane="4999331#0_0" arrivalPos="373.64" arrivalSpeed="13.13" duration="82.00" routeLength="731.93" waitingTime="15.00" waitingCount="1" stopTime="0.00" timeLoss="27.70" rerouteNo="0" devices="tripinfo_79538_387_0" vType="pkw" speedFactor="0.98" vaporized=""/>
    <tripinfo id="141513_415_0" depart="25233.00" departLane="4999334_0" departPos="4.40" departSpeed="0.00" departDelay="0.00" arrival="25300.00" arrivalLane="4145590#0_1" arrivalPos="95.58" arrivalSpeed="12.24" duration="67.00" routeLength="615.60" waitingTime="1.00" waitingCount="1" stopTime="0.00" timeLoss="18.89" rerouteNo="0" devices="tripinfo_141513_415_0" vType="pkw" speedFactor="0.93" vaporized=""/>
    <tripinfo id="173797_427_0" depart="25226.00" departLane="-41910186_0" departPos="4.40" departSpeed="0.00" departDelay="0.00" arrival="25302.00" arrivalLane="4145590#0_1" arrivalPos="95.58" arrivalSpeed="13.57" duration="76.00" routeLength="894.77" waitingTime="0.00" waitingCount="0" stopTime="0.00" timeLoss="11.00" rerouteNo="0" devices="tripinfo_173797_427_0" vType="pkw" speedFactor="1.01" vaporized=""/>
    <tripinfo id="100301_396_0" depart="25260.00" departLane="-241660955#17_0" departPos="4.40" departSpeed="0.00" departDelay="0.00" arrival="25304.00" arrivalLane="130160207#0_0" arrivalPos="135.18" arrivalSpeed="7.47" duration="44.00" routeLength="257.86" waitingTime="8.00" waitingCount="1" stopTime="0.00" timeLoss="17.75" rerouteNo="0" devices="tripinfo_100301_396_0" vType="pkw" speedFactor="0.97" vaporized=""/>
    <tripinfo id="126562_407_0" depart="25262.00" departLane="241660957#0_0" departPos="4.40" departSpeed="0.00" departDelay="0.00" arrival="25304.00" arrivalLane="4999331#0_0" arrivalPos="373.64" arrivalSpeed="12.76" duration="42.00" routeLength="489.64" waitingTime="1.00" waitingCount="1" stopTime="0.00" timeLoss="6.34" rerouteNo="0" devices="tripinfo_126562_407_0" vType="pkw" speedFactor="1.01" vaporized=""/>
    <tripinfo id="155359_420_0" depart="25288.00" departLane="31864804_0" departPos="4.40" departSpeed="0.00" departDelay="0.00" arrival="25304.00" arrivalLane="-31864804_1" arrivalPos="70.23" arrivalSpeed="12.13" duration="16.00" routeLength="140.71" waitingTime="0.00" waitingCount="0" stopTime="0.00" timeLoss="4.63" rerouteNo="0" devices="tripinfo_155359_420_0" vType="pkw" speedFactor="0.92" vaporized=""/>
    <tripinfo id="123109_406_0" depart="25260.00" departLane="241660957#0_0" departPos="4.40" departSpeed="0.00" departDelay="0.00" arrival="25305.00" arrivalLane="4999331#0_1" arrivalPos="373.64" arrivalSpeed="13.48" duration="45.00" routeLength="489.64" waitingTime="0.00" waitingCount="0" stopTime="0.00" timeLoss="9.31" rerouteNo="0" devices="tripinfo_123109_406_0" vType="pkw" speedFactor="0.99" vaporized=""/>
    <tripinfo id="149951_417_0" depart="25274.00" departLane="-130160207#0_0" departPos="4.40" departSpeed="0.00" departDelay="0.00" arrival="25306.00" arrivalLane="241660955#17_0" arrivalPos="110.13" arrivalSpeed="12.85" duration="32.00" routeLength="250.75" waitingTime="0.00" waitingCount="0" stopTime="0.00" timeLoss="5.63" rerouteNo="0" devices="tripinfo_149951_417_0" vType="pkw" speedFactor="0.93" vaporized=""/>
    <tripinfo id="76573_386_0" depart="25275.00" departLane="-241660955#17_0" departPos="4.40" departSpeed="0.00" departDelay="0.00" arrival="25309.00" arrivalLane="130160207#0_0" arrivalPos="135.18" arrivalSpeed="6.82" duration="34.00" routeLength="257.86" waitingTime="0.00" waitingCount="0" stopTime="0.00" timeLoss="5.57" rerouteNo="0" devices="tripinfo_76573_386_0" vType="pkw" speedFactor="0.92" vaporized=""/>
    <tripinfo id="163790_422_0" depart="25264.00" departLane="-130160207#0_0" departPos="4.40" departSpeed="0.00" departDelay="0.00" arrival="25311.00" arrivalLane="130160207#0_0" arrivalPos="135.18" arrivalSpeed="7.82" duration="47.00" routeLength="270.63" waitingTime="8.00" waitingCount="1" stopTime="0.00" timeLoss="16.05" rerouteNo="0" devices="tripinfo_163790_422_0" vType="pkw" speedFactor="1.05" vaporized=""/>
    <tripinfo id="150860_418_0" depart="25276.00" departLane="31864804_0" departPos="4.40" departSpeed="0.00" departDelay="0.00" arrival="25315.00" arrivalLane="4999331#0_1" arrivalPos="373.64" arrivalSpeed="15.57" duration="39.00" routeLength="492.92" waitingTime="0.00" waitingCount="0" stopTime="0.00" timeLoss="8.67" rerouteNo="0" devices="tripinfo_150860_418_0" vType="pkw" speedFactor="1.17" vaporized=""/>
    <tripinfo id="67548_381_0" depart="25290.00" departLane="-41910185#2_0" departPos="4.40" departSpeed="0.00" departDelay="2.00" arrival="25315.00" arrivalLane="241660955#10_0" arrivalPos="56.57" arrivalSpeed="12.46" duration="25.00" routeLength="191.84" waitingTime="0.00" waitingCount="0" stopTime="0.00" timeLoss="3.31" rerouteNo="0" devices="tripinfo_67548_381_0" vType="pkw" speedFactor="0.92" vaporized=""/>
    <tripinfo id="157767_421_0" depart="25269.00" departLane="31864804_0" departPos="4.40" departSpeed="0.00" departDelay="0.00" arrival="25323.00" arrivalLane="-41910186_0" arrivalPos="324.50" arrivalSpeed="12.25" duration="54.00" routeLength="571.64" waitingTime="2.00" waitingCount="1" stopTime="0.00" timeLoss="11.65" rerouteNo="0" devices="tripinfo_157767_421_0" vType="pkw" speedFactor="0.97" vaporized=""/>
    <tripinfo id="149148_417_0" depart="25279.00" departLane="-130160207#0_0" departPos="4.40" departSpeed="0.00" departDelay="0.00" arrival="25324.00" arrivalLane="-41910184_0" arrivalPos="185.90" arrivalSpeed="13.53" duration="45.00" routeLength="470.87" waitingTime="0.00" waitingCount="0" stopTime="0.00" timeLoss="4.38" rerouteNo="0" devices="tripinfo_149148_417_0" vType="pkw" speedFactor="1.00" vaporized=""/>
    <tripinfo id="97604_395_0" depart="25295.00" departLane="319261593#12_0" departPos="4.40" departSpeed="0.00" departDelay="0.00" arrival="25326.00" arrivalLane="-31864804_0" arrivalPos="70.23" arrivalSpeed="13.39" duration="31.00" routeLength="367.00" waitingTime="0.00" waitingCount="0" stopTime="0.00" timeLoss="3.87" rerouteNo="0" devices="tripinfo_97604_395_0" vType="pkw" speedFactor="0.99" vaporized=""/>
    <tripinfo id="84339_390_0" depart="25298.00" departLane="319261593#12_0" departPos="4.40" departSpeed="0.00" departDelay="1.00" arrival="25328.00" arrivalLane="4145590#0_0" arrivalPos="95.58" arrivalSpeed="14.91" duration="30.00" routeLength="383.82" waitingTime="0.00" waitingCount="0" stopTime="0.00" timeLoss="4.15" rerouteNo="0" devices="tripinfo_84339_390_0" vType="pkw" speedFactor="1.08" vaporized=""/>
    <tripinfo id="147095_416_0" depart="25300.00" departLane="-130160207#0_0" departPos="4.40" departSpeed="0.00" departDelay="0.00" arrival="25328.00" arrivalLane="241660955#17_0" arrivalPos="110.13" arrivalSpeed="13.24" duration="28.00" routeLength="250.75" waitingTime="0.00" waitingCount="0" stopTime="0.00" timeLoss="3.78" rerouteNo="0" devices="tripinfo_147095_416_0" vType="pkw" speedFactor="1.02" vaporized=""/>
    <tripinfo id="142858_415_0" depart="25309.00" departLane="-130160207#0_0" departPos="4.40" departSpeed="0.00" departDelay="0.00" arrival="25333.00" arrivalLane="241660955#17_0" arrivalPos="110.13" arrivalSpeed="15.69" duration="24.00" routeLength="250.75" waitingTime="0.00" waitingCount="0" stopTime="0.00" timeLoss="3.72" rerouteNo="0" devices="tripinfo_142858_415_0" vType="pkw" speedFactor="1.19" vaporized=""/>
    <tripinfo id="165473_423_0" depart="25267.00" departLane="41910186_0" departPos="4.40" departSpeed="0.00" departDelay="0.00" arrival="25336.00" arrivalLane="-31864804_0" arrivalPos="70.23" arrivalSpeed="12.27" duration="69.00" routeLength="565.92" waitingTime="14.00" waitingCount="1" stopTime="0.00" timeLoss="25.98" rerouteNo="0" devices="tripinfo_165473_423_0" vType="pkw" speedFactor="0.97" vaporized=""/>
    <tripinfo id="143042_415_0" depart="25300.00" departLane="31864804_0" departPos="4.40" departSpeed="0.00" departDelay="0.00" arrival="25336.00" arrivalLane="4145590#0_0" arrivalPos="95.58" arrivalSpeed="9.64" duration="36.00" routeLength="195.56" waitingTime="7.00" waitingCount="1" stopTime="0.00" timeLoss="16.04" rerouteNo="0" devices="tripinfo_143042_415_0" vType="pkw" speedFactor="0.74" vaporized=""/>
    <tripinfo id="144088_416_0" depart="25303.00" departLane="241660955#6_0" departPos="4.40" departSpeed="0.00" departDelay="0.00" arrival="25336.00" arrivalLane="-4999334_0" arrivalPos="293.22" arrivalSpeed="11.96" duration="33.00" routeLength="357.51" waitingTime="0.00" waitingCount="0" stopTime="0.00" timeLoss="5.47" rerouteNo="0" devices="tripinfo_144088_416_0" vType="pkw" speedFactor="0.95" vaporized=""/>
    <tripinfo id="164227_422_0" depart="25285.00" departLane="4999334_0" departPos="4.40" departSpeed="0.00" departDelay="0.00" arrival="25338.00" arrivalLane="-31864804_0" arrivalPos="70.23" arrivalSpeed="12.07" duration="53.00" routeLength="615.92" waitingTime="0.00" waitingCount="0" stopTime="0.00" timeLoss="6.29" rerouteNo="0" devices="tripinfo_164227_422_0" vType="pkw" speedFactor="0.96" vaporized=""/>
    <tripinfo id="171899_426_0" depart="25303.00" departLane="-41910185#2_0" departPos="4.40" departSpeed="0.00" departDelay="0.00" arrival="25339.00" arrivalLane="-4045329#5_0" arrivalPos="121.37" arrivalSpeed="10.23" duration="36.00" routeLength="266.80" waitingTime="0.00" waitingCount="0" stopTime="0.00" timeLoss="4.27" rerouteNo="0" devices="tripinfo_171899_426_0" vType="pkw" speedFactor="0.82" vaporized=""/>
    <tripinfo id="71667_383_0" depart="25276.00" departLane="241660957#0_0" departPos="4.40" departSpeed="0.00" departDelay="0.00" arrival="25341.00" arrivalLane="4999331#0_1" arrivalPos="373.64" arrivalSpeed="16.20" duration="65.00" routeLength="489.64" waitingTime="23.00" waitingCount="1" stopTime="0.00" timeLoss="34.72" rerouteNo="0" devices="tripinfo_71667_383_0" vType="pkw" speedFactor="1.18" vaporized=""/>
    <tripinfo id="172020_426_0" depart="25285.00" departLane="31864804_0" departPos="4.40" departSpeed="0.00" departDelay="0.00" arrival="25341.00" arrivalLane="4999331#0_0" arrivalPos="373.64" arrivalSpeed="9.99" duration="56.00" routeLength="492.92" waitingTime="0.00" waitingCount="0" stopTime="0.00" timeLoss="9.92" rerouteNo="0" devices="tripinfo_172020_426_0" vType="pkw" speedFactor="0.79" vaporized=""/>
    <tripinfo id="126024_407_0" depart="25301.00" departLane="319261593#12_0" departPos="4.40" departSpeed="0.00" departDelay="3.00" arrival="25344.00" arrivalLane="-31864804_0" arrivalPos="70.23" arrivalSpeed="13.70" duration="43.00" routeLength="367.00" waitingTime="6.00" waitingCount="1" stopTime="0.00" timeLoss="15.94" rerouteNo="0" devices="tripinfo_126024_407_0" vType="pkw" speedFactor="1.01" vaporized=""/>
    <tripinfo id="152332_419_0" depart="25313.00" departLane="-130160207#0_0" departPos="4.40" departSpeed="0.00" departDelay="0.00" arrival="25344.00" arrivalLane="241660955#17_0" arrivalPos="110.13" arrivalSpeed="11.73" duration="31.00" routeLength="250.75" waitingTime="0.00" waitingCount="0" stopTime="0.00" timeLoss="4.16" rerouteNo="0" devices="tripinfo_152332_419_0" vType="pkw" speedFactor="0.91" vaporized=""/>
    <tripinfo id="168091_425_0" depart="25281.00" departLane="-130160207#0_0" departPos="4.40" departSpeed="0.00" departDelay="0.00" arrival="25345.00" arrivalLane="-41910184_0" arrivalPos="185.90" arrivalSpeed="10.83" duration="64.00" routeLength="470.87" waitingTime="9.00" waitingCount="1" stopTime="0.00" timeLoss="16.99" rerouteNo="0" devices="tripinfo_168091_425_0" vType="pkw" speedFactor="0.87" vaporized=""/>
    <tripinfo id="170585_426_0" depart="25288.00" departLane="241660957#0_0" departPos="4.40" departSpeed="0.00" departDelay="0.00" arrival="25345.00" arrivalLane="4999331#0_0" arrivalPos="373.64" arrivalSpeed="13.62" duration="57.00" routeLength="489.64" waitingTime="11.00" waitingCount="1" stopTime="0.00" timeLoss="21.33" rerouteNo="0" devices="tripinfo_170585_426_0" vType="pkw" speedFactor="1.00" vaporized=""/>
    <tripinfo id="121240_405_0" depart="25302.00" departLane="241660957#0_0" departPos="4.40" departSpeed="0.00" departDelay="0.00" arrival="25345.00" arrivalLane="4999331#0_1" arrivalPos="373.64" arrivalSpeed="15.07" duration="43.00" routeLength="489.64" waitingTime="0.00" waitingCount="0" stopTime="0.00" timeLoss="10.52" rerouteNo="0" devices="tripinfo_121240_405_0" vType="pkw" speedFactor="1.11" vaporized=""/>
    <tripinfo id="139107_413_0" depart="25284.00" departLane="-130160207#0_0" departPos="4.40" departSpeed="0.00" departDelay="0.00" arrival="25346.00" arrivalLane="-41910184_0" arrivalPos="185.90" arrivalSpeed="12.34" duration="62.00" routeLength="470.87" waitingTime="7.00" waitingCount="1" stopTime="0.00" timeLoss="19.58" rerouteNo="0" devices="tripinfo_139107_413_0" vType="pkw" speedFactor="0.95" vaporized=""/>
    <tripinfo id="119667_405_0" depart="25307.00" departLane="319261593#12_0" departPos="4.40" departSpeed="0.00" departDelay="5.00" arrival="25346.00" arrivalLane="-31864804_0" arrivalPos="70.23" arrivalSpeed="11.97" duration="39.00" routeLength="367.00" waitingTime="0.00" waitingCount="0" stopTime="0.00" timeLoss="9.60" rerouteNo="0" devices="tripinfo_119667_405_0" vType="pkw" speedFactor="0.93" vaporized=""/>