<?xml version="1.0" encoding="UTF-8"?>

<!-- generated on 2025-03-11 20:37:22 by Eclipse SUMO sumo Version 1.22.0
<sumoConfiguration xmlns:xsi="http://www.w3.org/2001/XMLSchema-instance" xsi:noNamespaceSchemaLocation="http://sumo.dlr.de/xsd/sumoConfiguration.xsd">

    <input>
        <net-file value="/home/mansour/project/Traffic_signal_control/RESCO/resco_benchmark/environments/cologne3/cologne3.net.xml"/>
        <route-files value="/home/mansour/project/Traffic_signal_control/RESCO/resco_benchmark/environments/cologne3/cologne3.rou.xml"/>
    </input>

    <output>
        <tripinfo-output value="/home/mansour/project/Traffic_signal_control/RESCO/results/IDQN-tr0-cologne3-0-drq_norm-wait_norm/tripinfo_4.xml"/>
        <tripinfo-output.write-unfinished value="true"/>
    </output>

    <time>
        <begin value="25200"/>
        <end value="28800"/>
    </time>

    <processing>
        <time-to-teleport value="-1"/>
    </processing>

    <report>
        <no-warnings value="True"/>
        <no-step-log value="True"/>
    </report>

    <traci_server>
        <remote-port value="33475"/>
    </traci_server>

    <random_number>
        <random value="true"/>
    </random_number>

</sumoConfiguration>
-->

<tripinfos xmlns:xsi="http://www.w3.org/2001/XMLSchema-instance" xsi:noNamespaceSchemaLocation="http://sumo.dlr.de/xsd/tripinfo_file.xsd">
    <tripinfo id="160296_421_0" depart="25211.00" departLane="241660955#13_0" departPos="4.40" departSpeed="0.00" departDelay="0.00" arrival="25235.00" arrivalLane="241660955#17_0" arrivalPos="110.13" arrivalSpeed="12.19" duration="24.00" routeLength="247.24" waitingTime="0.00" waitingCount="0" stopTime="0.00" timeLoss="3.52" rerouteNo="0" devices="tripinfo_160296_421_0" vType="pkw" speedFactor="0.89" vaporized=""/>
    <tripinfo id="132022_410_0" depart="25213.00" departLane="241660957#0_0" departPos="4.40" departSpeed="0.00" departDelay="0.00" arrival="25253.00" arrivalLane="4999331#0_0" arrivalPos="373.64" arrivalSpeed="13.29" duration="40.00" routeLength="489.64" waitingTime="0.00" waitingCount="0" stopTime="0.00" timeLoss="4.38" rerouteNo="0" devices="tripinfo_132022_410_0" vType="pkw" speedFactor="1.00" vaporized=""/>
    <tripinfo id="169122_425_0" depart="25228.00" departLane="-4999334_0" departPos="4.40" departSpeed="0.00" departDelay="0.00" arrival="25256.00" arrivalLane="-4999334_0" arrivalPos="293.22" arrivalSpeed="12.46" duration="28.00" routeLength="288.82" waitingTime="0.00" waitingCount="0" stopTime="0.00" timeLoss="4.42" rerouteNo="0" devices="tripinfo_169122_425_0" vType="pkw" speedFactor="0.90" vaporized=""/>
    <tripinfo id="68266_381_0" depart="25229.00" departLane="4045329#5_0" departPos="4.40" departSpeed="0.00" departDelay="0.00" arrival="25257.00" arrivalLane="41910185#0_0" arrivalPos="127.86" arrivalSpeed="8.88" duration="28.00" routeLength="267.37" waitingTime="0.00" waitingCount="0" stopTime="0.00" timeLoss="4.96" rerouteNo="0" devices="tripinfo_68266_381_0" vType="pkw" speedFactor="1.15" vaporized=""/>
    <tripinfo id="73223_384_0" depart="25204.00" departLane="241660957#0_0" departPos="4.40" departSpeed="0.00" departDelay="0.00" arrival="25258.00" arrivalLane="4999331#0_0" arrivalPos="373.64" arrivalSpeed="11.74" duration="54.00" routeLength="489.64" waitingTime="6.00" waitingCount="1" stopTime="0.00" timeLoss="15.07" rerouteNo="0" devices="tripinfo_73223_384_0" vType="pkw" speedFactor="0.92" vaporized=""/>
    <tripinfo id="111294_401_0" depart="25211.00" departLane="-5229966#3_0" departPos="4.40" departSpeed="0.00" departDelay="0.00" arrival="25258.00" arrivalLane="4145590#0_0" arrivalPos="95.58" arrivalSpeed="10.48" duration="47.00" routeLength="453.70" waitingTime="0.00" waitingCount="0" stopTime="0.00" timeLoss="6.06" rerouteNo="0" devices="tripinfo_111294_401_0" vType="pkw" speedFactor="0.82" vaporized=""/>
    <tripinfo id="132667_410_0" depart="25212.00" departLane="-31800061#0_0" departPos="4.40" departSpeed="0.00" departDelay="0.00" arrival="25258.00" arrivalLane="-4999334_0" arrivalPos="293.22" arrivalSpeed="13.89" duration="46.00" routeLength="492.72" waitingTime="0.00" waitingCount="0" stopTime="0.00" timeLoss="7.96" rerouteNo="0" devices="tripinfo_132667_410_0" vType="pkw" speedFactor="1.09" vaporized=""/>
    <tripinfo id="140878_414_0" depart="25231.00" departLane="-130160207#0_0" departPos="4.40" departSpeed="0.00" departDelay="0.00" arrival="25259.00" arrivalLane="241660955#17_0" arrivalPos="110.13" arrivalSpeed="13.96" duration="28.00" routeLength="250.75" waitingTime="0.00" waitingCount="0" stopTime="0.00" timeLoss="3.68" rerouteNo="0" devices="tripinfo_140878_414_0" vType="pkw" speedFactor="1.03" vaporized=""/>
    <tripinfo id="141383_415_0" depart="25216.00" departLane="41910184_0" departPos="4.40" departSpeed="0.00" departDelay="0.00" arrival="25262.00" arrivalLane="4145589#0_0" arrivalPos="149.75" arrivalSpeed="7.30" duration="46.00" routeLength="368.38" waitingTime="1.00" waitingCount="1" stopTime="0.00" timeLoss="11.64" rerouteNo="0" devices="tripinfo_141383_415_0" vType="pkw" speedFactor="0.99" vaporized=""/>
    <tripinfo id="140163_414_0" depart="25244.00" departLane="241660955#13_0" departPos="4.40" departSpeed="0.00" departDelay="0.00" arrival="25263.00" arrivalLane="-41910184_0" arrivalPos="185.90" arrivalSpeed="14.23" duration="19.00" routeLength="216.76" waitingTime="0.00" waitingCount="0" stopTime="0.00" timeLoss="3.56" rerouteNo="0" devices="tripinfo_140163_414_0" vType="pkw" speedFactor="1.03" vaporized=""/>
    <tripinfo id="98545_395_0" depart="25206.00" departLane="4045330_0" departPos="4.40" departSpeed="0.00" departDelay="0.00" arrival="25265.00" arrivalLane="241660955#17_0" arrivalPos="110.13" arrivalSpeed="12.80" duration="59.00" routeLength="473.04" waitingTime="8.00" waitingCount="1" stopTime="0.00" timeLoss="17.62" rerouteNo="0" devices="tripinfo_98545_395_0" vType="pkw" speedFactor="0.98" vaporized=""/>
    <tripinfo id="163719_422_0" depart="25211.00" departLane="4045330_0" departPos="4.40" departSpeed="0.00" departDelay="0.00" arrival="25265.00" arrivalLane="241660955#17_1" arrivalPos="110.13" arrivalSpeed="14.30" duration="54.00" routeLength="473.04" waitingTime="5.00" waitingCount="1" stopTime="0.00" timeLoss="16.39" rerouteNo="0" devices="tripinfo_163719_422_0" vType="pkw" speedFactor="1.09" vaporized=""/>
    <tripinfo id="81370_389_0" depart="25231.00" departLane="4045329#5_0" departPos="4.40" departSpeed="0.00" departDelay="0.00" arrival="25270.00" arrivalLane="-4045330_0" arrivalPos="128.76" arrivalSpeed="7.15" duration="39.00" routeLength="329.66" waitingTime="0.00" waitingCount="0" stopTime="0.00" timeLoss="6.94" rerouteNo="0" devices="tripinfo_81370_389_0" vType="pkw" speedFactor="0.94" vaporized=""/>
    <tripinfo id="131963_410_0" depart="25223.00" departLane="-31800061#0_0" departPos="4.40" departSpeed="0.00" departDelay="0.00" arrival="25276.00" arrivalLane="-4999334_0" arrivalPos="293.22" arrivalSpeed="11.48" duration="53.00" routeLength="492.72" waitingTime="0.00" waitingCount="0" stopTime="0.00" timeLoss="5.52" rerouteNo="0" devices="tripinfo_131963_410_0" vType="pkw" speedFactor="0.86" vaporized=""/>
    <tripinfo id="161160_421_0" depart="25225.00" departLane="241660957#0_0" departPos="4.40" departSpeed="0.00" departDelay="0.00" arrival="25276.00" arrivalLane="4999331#0_0" arrivalPos="373.64" arrivalSpeed="12.53" duration="51.00" routeLength="489.64" waitingTime="6.00" waitingCount="1" stopTime="0.00" timeLoss="14.53" rerouteNo="0" devices="tripinfo_161160_421_0" vType="pkw" speedFactor="0.99" vaporized=""/>
    <tripinfo id="120846_405_0" depart="25207.00" departLane="31864804_0" departPos="4.40" departSpeed="0.00" departDelay="0.00" arrival="25277.00" arrivalLane="-4999334_0" arrivalPos="293.22" arrivalSpeed="14.82" duration="70.00" routeLength="621.86" waitingTime="14.00" waitingCount="1" stopTime="0.00" timeLoss="34.72" rerouteNo="0" devices="tripinfo_120846_405_0" vType="pkw" speedFactor="1.27" vaporized=""/>
    <tripinfo id="166826_424_0" depart="25240.00" departLane="41910184_0" departPos="4.40" departSpeed="0.00" departDelay="0.00" arrival="25282.00" arrivalLane="4145589#0_0" arrivalPos="149.75" arrivalSpeed="7.83" duration="42.00" routeLength="368.38" waitingTime="0.00" waitingCount="0" stopTime="0.00" timeLoss="6.72" rerouteNo="0" devices="tripinfo_166826_424_0" vType="pkw" speedFactor="0.98" vaporized=""/>
    <tripinfo id="163598_422_0" depart="25236.00" departLane="-130160207#0_0" departPos="4.40" departSpeed="0.00" departDelay="0.00" arrival="25286.00" arrivalLane="241660955#17_0" arrivalPos="110.13" arrivalSpeed="12.03" duration="50.00" routeLength="250.75" waitingTime="15.00" waitingCount="1" stopTime="0.00" timeLoss="22.13" rerouteNo="0" devices="tripinfo_163598_422_0" vType="pkw" speedFactor="0.91" vaporized=""/>
    <tripinfo id="100301_396_0" depart="25260.00" departLane="-241660955#17_0" departPos="4.40" departSpeed="0.00" departDelay="0.00" arrival="25286.00" arrivalLane="130160207#0_0" arrivalPos="135.18" arrivalSpeed="9.51" duration="26.00" routeLength="257.86" waitingTime="0.00" waitingCount="0" stopTime="0.00" timeLoss="4.63" rerouteNo="0" devices="tripinfo_100301_396_0" vType="pkw" speedFactor="1.20" vaporized=""/>
    <tripinfo id="83081_390_0" depart="25228.00" departLane="31864804_0" departPos="4.40" departSpeed="0.00" departDelay="0.00" arrival="25288.00" arrivalLane="-4999334_0" arrivalPos="293.22" arrivalSpeed="12.25" duration="60.00" routeLength="688.22" waitingTime="0.00" waitingCount="0" stopTime="0.00" timeLoss="6.31" rerouteNo="0" devices="tripinfo_83081_390_0" vType="pkw" speedFactor="0.92" vaporized=""/>
    <tripinfo id="163366_422_0" depart="25253.00" departLane="-130160207#0_0" departPos="4.40" departSpeed="0.00" departDelay="0.00" arrival="25289.00" arrivalLane="241660955#17_0" arrivalPos="110.13" arrivalSpeed="13.23" duration="36.00" routeLength="250.75" waitingTime="1.00" waitingCount="1" stopTime="0.00" timeLoss="9.49" rerouteNo="0" devices="tripinfo_163366_422_0" vType="pkw" speedFactor="0.95" vaporized=""/>
    <tripinfo id="132705_410_0" depart="25200.00" departLane="-5229966#3_0" departPos="4.40" departSpeed="0.00" departDelay="0.00" arrival="25290.00" arrivalLane="4045332#0_0" arrivalPos="114.41" arrivalSpeed="6.14" duration="90.00" routeLength="721.22" waitingTime="5.00" waitingCount="1" stopTime="0.00" timeLoss="19.03" rerouteNo="0" devices="tripinfo_132705_410_0" vType="pkw" speedFactor="0.82" vaporized=""/>
    <tripinfo id="118698_405_0" depart="25213.00" departLane="-5229966#3_0" departPos="4.40" departSpeed="0.00" departDelay="0.00" arrival="25291.00" arrivalLane="4145590#0_0" arrivalPos="95.58" arrivalSpeed="12.74" duration="78.00" routeLength="453.02" waitingTime="25.00" waitingCount="2" stopTime="0.00" timeLoss="42.92" rerouteNo="0" devices="tripinfo_118698_405_0" vType="pkw" speedFactor="0.95" vaporized=""/>
    <tripinfo id="161578_421_0" depart="25265.00" departLane="-4999334_0" departPos="4.40" departSpeed="0.00" departDelay="2.00" arrival="25292.00" arrivalLane="-4999334_0" arrivalPos="293.22" arrivalSpeed="12.17" duration="27.00" routeLength="288.82" waitingTime="0.00" waitingCount="0" stopTime="0.00" timeLoss="4.11" rerouteNo="0" devices="tripinfo_161578_421_0" vType="pkw" speedFactor="0.92" vaporized=""/>
    <tripinfo id="137478_412_0" depart="25248.00" departLane="4045330_0" departPos="4.40" departSpeed="0.00" departDelay="0.00" arrival="25295.00" arrivalLane="241660955#17_1" arrivalPos="110.13" arrivalSpeed="12.69" duration="47.00" routeLength="473.04" waitingTime="0.00" waitingCount="0" stopTime="0.00" timeLoss="5.19" rerouteNo="0" devices="tripinfo_137478_412_0" vType="pkw" speedFactor="0.96" vaporized=""/>
    <tripinfo id="85241_390_0" depart="25242.00" departLane="41910184_0" departPos="4.40" departSpeed="0.00" departDelay="0.00" arrival="25296.00" arrivalLane="241660955#17_0" arrivalPos="110.13" arrivalSpeed="12.65" duration="54.00" routeLength="451.07" waitingTime="4.00" waitingCount="1" stopTime="0.00" timeLoss="18.52" rerouteNo="0" devices="tripinfo_85241_390_0" vType="pkw" speedFactor="0.92" vaporized=""/>
    <tripinfo id="168647_425_0" depart="25268.00" departLane="-4999334_0" departPos="4.40" departSpeed="0.00" departDelay="2.00" arrival="25297.00" arrivalLane="-4999334_0" arrivalPos="293.22" arrivalSpeed="11.48" duration="29.00" routeLength="288.82" waitingTime="0.00" waitingCount="0" stopTime="0.00" timeLoss="3.69" rerouteNo="0" devices="tripinfo_168647_425_0" vType="pkw" speedFactor="0.85" vaporized=""/>
    <tripinfo id="134770_411_0" depart="25235.00" departLane="-31800061#0_0" departPos="4.40" departSpeed="0.00" departDelay="0.00" arrival="25298.00" arrivalLane="-41910184_0" arrivalPos="185.90" arrivalSpeed="13.65" duration="63.00" routeLength="682.81" waitingTime="0.00" waitingCount="0" stopTime="0.00" timeLoss="9.28" rerouteNo="0" devices="tripinfo_134770_411_0" vType="pkw" speedFactor="1.02" vaporized=""/>
    <tripinfo id="111993_401_0" depart="25251.00" departLane="4045329#5_0" departPos="4.40" departSpeed="0.00" departDelay="0.00" arrival="25299.00" arrivalLane="41910185#0_0" arrivalPos="127.86" arrivalSpeed="7.56" duration="48.00" routeLength="267.37" waitingTime="13.00" waitingCount="1" stopTime="0.00" timeLoss="22.29" rerouteNo="0" devices="tripinfo_111993_401_0" vType="pkw" speedFactor="1.02" vaporized=""/>
    <tripinfo id="79538_387_0" depart="25216.00" departLane="-5229966#3_0" departPos="4.40" departSpeed="0.00" departDelay="1.00" arrival="25302.00" arrivalLane="4999331#0_0" arrivalPos="373.64" arrivalSpeed="12.54" duration="86.00" routeLength="731.93" waitingTime="10.00" waitingCount="2" stopTime="0.00" timeLoss="29.38" rerouteNo="0" devices="tripinfo_79538_387_0" vType="pkw" speedFactor="0.94" vaporized=""/>
    <tripinfo id="141513_415_0" depart="25233.00" departLane="4999334_0" departPos="4.40" departSpeed="0.00" departDelay="0.00" arrival="25302.00" arrivalLane="4145590#0_1" arrivalPos="95.58" arrivalSpeed="11.76" duration="69.00" routeLength="615.60" waitingTime="8.00" waitingCount="1" stopTime="0.00" timeLoss="18.05" rerouteNo="0" devices="tripinfo_141513_415_0" vType="pkw" speedFactor="0.87" vaporized=""/>
    <tripinfo id="150954_418_0" depart="25249.00" departLane="-130160207#0_0" departPos="4.40" departSpeed="0.00" departDelay="0.00" arrival="25303.00" arrivalLane="-41910184_0" arrivalPos="185.90" arrivalSpeed="13.02" duration="54.00" routeLength="470.87" waitingTime="4.00" waitingCount="1" stopTime="0.00" timeLoss="14.30" rerouteNo="0" devices="tripinfo_150954_418_0" vType="pkw" speedFactor="1.03" vaporized=""/>
    <tripinfo id="76573_386_0" depart="25275.00" departLane="-241660955#17_0" departPos="4.40" departSpeed="0.00" departDelay="0.00" arrival="25306.00" arrivalLane="130160207#0_0" arrivalPos="135.18" arrivalSpeed="8.68" duration="31.00" routeLength="257.86" waitingTime="0.00" waitingCount="0" stopTime="0.00" timeLoss="6.74" rerouteNo="0" devices="tripinfo_76573_386_0" vType="pkw" speedFactor="1.09" vaporized=""/>
    <tripinfo id="160813_421_0" depart="25253.00" departLane="41910184_0" departPos="4.40" departSpeed="0.00" departDelay="0.00" arrival="25309.00" arrivalLane="4145589#0_0" arrivalPos="149.75" arrivalSpeed="8.08" duration="56.00" routeLength="368.38" waitingTime="11.00" waitingCount="1" stopTime="0.00" timeLoss="21.67" rerouteNo="0" devices="tripinfo_160813_421_0" vType="pkw" speedFactor="1.01" vaporized=""/>
    <tripinfo id="123109_406_0" depart="25260.00" departLane="241660957#0_0" departPos="4.40" departSpeed="0.00" departDelay="0.00" arrival="25309.00" arrivalLane="4999331#0_0" arrivalPos="373.64" arrivalSpeed="15.01" duration="49.00" routeLength="489.64" waitingTime="5.00" waitingCount="1" stopTime="0.00" timeLoss="16.78" rerouteNo="0" devices="tripinfo_123109_406_0" vType="pkw" speedFactor="1.12" vaporized=""/>
    <tripinfo id="155750_420_0" depart="25256.00" departLane="-130160207#0_0" departPos="4.40" departSpeed="0.00" departDelay="0.00" arrival="25310.00" arrivalLane="241660955#17_0" arrivalPos="110.13" arrivalSpeed="17.49" duration="54.00" routeLength="250.75" waitingTime="16.00" waitingCount="1" stopTime="0.00" timeLoss="34.17" rerouteNo="0" devices="tripinfo_155750_420_0" vType="pkw" speedFactor="1.26" vaporized=""/>
    <tripinfo id="126562_407_0" depart="25263.00" departLane="241660957#0_0" departPos="4.40" departSpeed="0.00" departDelay="1.00" arrival="25311.00" arrivalLane="4999331#0_0" arrivalPos="373.64" arrivalSpeed="13.09" duration="48.00" routeLength="489.64" waitingTime="1.00" waitingCount="1" stopTime="0.00" timeLoss="12.35" rerouteNo="0" devices="tripinfo_126562_407_0" vType="pkw" speedFactor="1.00" vaporized=""/>
    <tripinfo id="149951_417_0" depart="25274.00" departLane="-130160207#0_0" departPos="4.40" departSpeed="0.00" departDelay="0.00" arrival="25314.00" arrivalLane="241660955#17_0" arrivalPos="110.13" arrivalSpeed="13.57" duration="40.00" routeLength="250.75" waitingTime="7.00" waitingCount="1" stopTime="0.00" timeLoss="16.16" rerouteNo="0" devices="tripinfo_149951_417_0" vType="pkw" speedFactor="1.04" vaporized=""/>
    <tripinfo id="113109_402_0" depart="25203.00" departLane="4999334_0" departPos="4.40" departSpeed="0.00" departDelay="0.00" arrival="25315.00" arrivalLane="-31864804_0" arrivalPos="70.23" arrivalSpeed="13.75" duration="112.00" routeLength="615.92" waitingTime="55.00" waitingCount="1" stopTime="0.00" timeLoss="68.05" rerouteNo="0" devices="tripinfo_113109_402_0" vType="pkw" speedFactor="1.01" vaporized=""/>
    <tripinfo id="153005_419_0" depart="25270.00" departLane="41910184_0" departPos="4.40" departSpeed="0.00" departDelay="0.00" arrival="25318.00" arrivalLane="4145589#0_0" arrivalPos="149.75" arrivalSpeed="5.95" duration="48.00" routeLength="368.38" waitingTime="0.00" waitingCount="0" stopTime="0.00" timeLoss="6.70" rerouteNo="0" devices="tripinfo_153005_419_0" vType="pkw" speedFactor="0.84" vaporized=""/>
    <tripinfo id="173797_427_0" depart="25226.00" departLane="-41910186_0" departPos="4.40" departSpeed="0.00" departDelay="0.00" arrival="25319.00" arrivalLane="4145590#0_1" arrivalPos="95.58" arrivalSpeed="12.99" duration="93.00" routeLength="894.77" waitingTime="12.00" waitingCount="2" stopTime="0.00" timeLoss="26.79" rerouteNo="0" devices="tripinfo_173797_427_0" vType="pkw" speedFactor="0.98" vaporized=""/>
    <tripinfo id="165473_423_0" depart="25267.00" departLane="41910186_0" departPos="4.40" departSpeed="0.00" departDelay="0.00" arrival="25319.00" arrivalLane="-31864804_0" arrivalPos="70.23" arrivalSpeed="12.17" duration="52.00" routeLength="565.92" waitingTime="0.00" waitingCount="0" stopTime="0.00" timeLoss="7.05" rerouteNo="0" devices="tripinfo_165473_423_0" vType="pkw" speedFactor="0.92" vaporized=""/>
    <tripinfo id="118681_405_0" depart="25237.00" departLane="4999334_0" departPos="4.40" departSpeed="0.00" departDelay="0.00" arrival="25320.00" arrivalLane="-31864804_1" arrivalPos="70.23" arrivalSpeed="14.06" duration="83.00" routeLength="615.92" waitingTime="19.00" waitingCount="2" stopTime="0.00" timeLoss="39.67" rerouteNo="0" devices="tripinfo_118681_405_0" vType="pkw" speedFactor="1.04" vaporized=""/>
    <tripinfo id="143042_415_0" depart="25300.00" departLane="31864804_0" departPos="4.40" departSpeed="0.00" departDelay="0.00" arrival="25320.00" arrivalLane="4145590#0_0" arrivalPos="95.58" arrivalSpeed="13.50" duration="20.00" routeLength="195.56" waitingTime="0.00" waitingCount="0" stopTime="0.00" timeLoss="5.92" rerouteNo="0" devices="tripinfo_143042_415_0" vType="pkw" speedFactor="1.05" vaporized=""/>
    <tripinfo id="104671_398_0" depart="25286.00" departLane="-41910185#2_0" departPos="4.40" departSpeed="0.00" departDelay="0.00" arrival="25321.00" arrivalLane="241660955#11_0" arrivalPos="73.18" arrivalSpeed="17.25" duration="35.00" routeLength="279.28" waitingTime="5.00" waitingCount="1" stopTime="0.00" timeLoss="14.06" rerouteNo="0" devices="tripinfo_104671_398_0" vType="pkw" speedFactor="1.27" vaporized=""/>
    <tripinfo id="73303_385_0" depart="25202.00" departLane="319261593#12_0" departPos="4.40" departSpeed="0.00" departDelay="0.00" arrival="25323.00" arrivalLane="4145590#0_0" arrivalPos="95.58" arrivalSpeed="14.22" duration="121.00" routeLength="408.95" waitingTime="79.00" waitingCount="2" stopTime="0.00" timeLoss="93.36" rerouteNo="0" devices="tripinfo_73303_385_0" vType="pkw" speedFactor="1.08" vaporized=""/>
    <tripinfo id="122325_406_0" depart="25208.00" departLane="319261593#12_0" departPos="4.40" departSpeed="0.00" departDelay="0.00" arrival="25323.00" arrivalLane="-31864804_0" arrivalPos="70.23" arrivalSpeed="14.01" duration="115.00" routeLength="352.97" waitingTime="80.00" waitingCount="2" stopTime="0.00" timeLoss="90.83" rerouteNo="0" devices="tripinfo_122325_406_0" vType="pkw" speedFactor="1.06" vaporized=""/>
    <tripinfo id="163790_422_0" depart="25264.00" departLane="-130160207#0_0" departPos="4.40" departSpeed="0.00" departDelay="0.00" arrival="25323.00" arrivalLane="130160207#0_0" arrivalPos="135.18" arrivalSpeed="7.12" duration="59.00" routeLength="270.63" waitingTime="13.00" waitingCount="1" stopTime="0.00" timeLoss="22.51" rerouteNo="0" devices="tripinfo_163790_422_0" vType="pkw" speedFactor="0.89" vaporized=""/>
    <tripinfo id="153968_420_0" depart="25227.00" departLane="319261593#12_0" departPos="4.40" departSpeed="0.00" departDelay="0.00" arrival="25325.00" arrivalLane="-31864804_0" arrivalPos="70.23" arrivalSpeed="15.02" duration="98.00" routeLength="352.97" waitingTime="61.00" waitingCount="2" stopTime="0.00" timeLoss="75.42" rerouteNo="0" devices="tripinfo_153968_420_0" vType="pkw" speedFactor="1.14" vaporized=""/>
    <tripinfo id="71667_383_0" depart="25276.00" departLane="241660957#0_0" departPos="4.40" departSpeed="0.00" departDelay="0.00" arrival="25326.00" arrivalLane="4999331#0_0" arrivalPos="373.64" arrivalSpeed="12.16" duration="50.00" routeLength="489.64" waitingTime="3.00" waitingCount="1" stopTime="0.00" timeLoss="12.95" rerouteNo="0" devices="tripinfo_71667_383_0" vType="pkw" speedFactor="0.95" vaporized=""/>
    <tripinfo id="157649_421_0" depart="25229.00" departLane="319261593#12_0" departPos="4.40" departSpeed="0.00" departDelay="0.00" arrival="25327.00" arrivalLane="-31864804_0" arrivalPos="70.23" arrivalSpeed="16.54" duration="98.00" routeLength="352.97" waitingTime="58.00" waitingCount="2" stopTime="0.00" timeLoss="76.67" rerouteNo="0" devices="tripinfo_157649_421_0" vType="pkw" speedFactor="1.23" vaporized=""/>
    <tripinfo id="155359_420_0" depart="25288.00" departLane="31864804_0" departPos="4.40" departSpeed="0.00" departDelay="0.00" arrival="25327.00" arrivalLane="-31864804_1" arrivalPos="70.23" arrivalSpeed="12.01" duration="39.00" routeLength="140.71" waitingTime="11.00" waitingCount="1" stopTime="0.00" timeLoss="28.08" rerouteNo="0" devices="tripinfo_155359_420_0" vType="pkw" speedFactor="0.93" vaporized=""/>
    <tripinfo id="170585_426_0" depart="25288.00" departLane="241660957#0_0" departPos="4.40" departSpeed="0.00" departDelay="0.00" arrival="25328.00" arrivalLane="4999331#0_0" arrivalPos="373.64" arrivalSpeed="12.80" duration="40.00" routeLength="489.64" waitingTime="0.00" waitingCount="0" stopTime="0.00" timeLoss="4.50" rerouteNo="0" devices="tripinfo_170585_426_0" vType="pkw" speedFactor="1.00" vaporized=""/>
    <tripinfo id="149148_417_0" depart="25279.00" departLane="-130160207#0_0" departPos="4.40" departSpeed="0.00" departDelay="0.00" arrival="25332.00" arrivalLane="-41910184_0" arrivalPos="185.90" arrivalSpeed="13.90" duration="53.00" routeLength="470.87" waitingTime="3.00" waitingCount="1" stopTime="0.00" timeLoss="13.93" rerouteNo="0" devices="tripinfo_149148_417_0" vType="pkw" speedFactor="1.05" vaporized=""/>
    <tripinfo id="144088_416_0" depart="25303.00" departLane="241660955#6_0" departPos="4.40" departSpeed="0.00" departDelay="0.00" arrival="25335.00" arrivalLane="-4999334_0" arrivalPos="293.22" arrivalSpeed="13.54" duration="32.00" routeLength="357.51" waitingTime="0.00" waitingCount="0" stopTime="0.00" timeLoss="6.13" rerouteNo="0" devices="tripinfo_144088_416_0" vType="pkw" speedFactor="1.00" vaporized=""/>
    <tripinfo id="147095_416_0" depart="25300.00" departLane="-130160207#0_0" departPos="4.40" departSpeed="0.00" departDelay="0.00" arrival="25340.00" arrivalLane="241660955#17_0" arrivalPos="110.13" arrivalSpeed="15.95" duration="40.00" routeLength="250.75" waitingTime="5.00" waitingCount="2" stopTime="0.00" timeLoss="18.38" rerouteNo="0" devices="tripinfo_147095_416_0" vType="pkw" speedFactor="1.16" vaporized=""/>
    <tripinfo id="164227_422_0" depart="25285.00" departLane="4999334_0" departPos="4.40" departSpeed="0.00" departDelay="0.00" arrival="25341.00" arrivalLane="-31864804_0" arrivalPos="70.23" arrivalSpeed="11.15" duration="56.00" routeLength="615.92" waitingTime="0.00" waitingCount="0" stopTime="0.00" timeLoss="5.83" rerouteNo="0" devices="tripinfo_164227_422_0" vType="pkw" speedFactor="0.89" vaporized=""/>
    <tripinfo id="168091_425_0" depart="25281.00" departLane="-130160207#0_0" departPos="4.40" departSpeed="0.00" departDelay="0.00" arrival="25342.00" arrivalLane="-41910184_0" arrivalPos="185.90" arrivalSpeed="10.19" duration="61.00" routeLength="470.87" waitingTime="0.00" waitingCount="0" stopTime="0.00" timeLoss="9.98" rerouteNo="0" devices="tripinfo_168091_425_0" vType="pkw" speedFactor="0.79" vaporized=""/>
    <tripinfo id="149066_417_0" depart="25235.00" departLane="31864804_0" departPos="4.40" departSpeed="0.00" departDelay="0.00" arrival="25344.00" arrivalLane="4999331#0_0" arrivalPos="373.64" arrivalSpeed="13.25" duration="109.00" routeLength="492.92" waitingTime="57.00" waitingCount="1" stopTime="0.00" timeLoss="74.12" rerouteNo="0" devices="tripinfo_149066_417_0" vType="pkw" speedFactor="1.03" vaporized=""/>
    <tripinfo id="161841_421_0" depart="25244.00" departLane="31864804_0" departPos="4.40" departSpeed="0.00" departDelay="0.00" arrival="25344.00" arrivalLane="4999331#0_1" arrivalPos="373.64" arrivalSpeed="16.19" duration="100.00" routeLength="492.92" waitingTime="51.00" waitingCount="2" stopTime="0.00" timeLoss="70.15" rerouteNo="0" devices="tripinfo_161841_421_0" vType="pkw" speedFactor="1.21" vaporized=""/>
    <tripinfo id="100929_396_0" depart="25233.00" departLane="-5229966#3_0" departPos="4.40" departSpeed="0.00" departDelay="0.00" arrival="25345.00" arrivalLane="4145590#0_0" arrivalPos="95.58" arrivalSpeed="12.11" duration="112.00" routeLength="453.70" waitingTime="60.00" waitingCount="2" stopTime="0.00" timeLoss="77.57" rerouteNo="0" devices="tripinfo_100929_396_0" vType="pkw" speedFactor="0.96" vaporized=""/>
    <tripinfo id="84339_390_0" depart="25298.00" departLane="319261593#12_0" departPos="4.40" departSpeed="0.00" departDelay="1.00" arrival="25345.00" arrivalLane="4145590#0_1" arrivalPos="95.58" arrivalSpeed="12.44" duration="47.00" routeLength="383.14" waitingTime="6.00" waitingCount="1" stopTime="0.00" timeLoss="16.46" rerouteNo="0" devices="tripinfo_84339_390_0" vType="pkw" speedFactor="0.90" vaporized=""/>
    <tripinfo id="139107_413_0" depart="25284.00" departLane="-130160207#0_0" departPos="4.40" departSpeed="0.00" departDelay="0.00" arrival="25346.00" arrivalLane="-41910184_0" arrivalPos="185.90" arrivalSpeed="14.30" duration="62.00" routeLength="470.87" waitingTime="5.00" waitingCount="1" stopTime="0.00" timeLoss="23.32" rerouteNo="0" devices="tripinfo_139107_413_0" vType="pkw" speedFactor="1.06" vaporized=""/>
    <tripinfo id="80569_388_0" depart="25309.00" departLane="319261593#12_0" departPos="4.40" departSpeed="0.00" departDelay="0.00" arrival="25347.00" arrivalLane="4145590#0_1" arrivalPos="95.58" arrivalSpeed="14.19" duration="38.00" routeLength="383.14" waitingTime="0.00" waitingCount="0" stopTime="0.00" timeLoss="11.54" rerouteNo="0" devices="tripinfo_80569_388_0" vType="pkw" speedFactor="1.06" vaporized=""/>
    <tripinfo id="147727_416_0" depart="25303.00" departLane="41910184_0" departPos="4.40" departSpeed="0.00" departDelay="2.00" arrival="25348.00" arrivalLane="4145589#0_0" arrivalPos="149.75" arrivalSpeed="7.41" duration="45.00" routeLength="368.38" waitingTime="0.00" waitingCount="0" stopTime="0.00" timeLoss="6.36" rerouteNo="0" devices="tripinfo_147727_416_0" vType="pkw" speedFactor="0.90" vaporized=""/>
    <tripinfo id="142858_415_0" depart="25309.00" departLane="-130160207#0_0" departPos="4.40" departSpeed="0.00" departDelay="0.00" arrival="25350.00" arrivalLane="241660955#17_0" arrivalPos="110.13" arrivalSpeed="15.56" duration="41.00" routeLength="250.75" waitingTime="8.00" waitingCount="2" stopTime="0.00" timeLoss="19.99" rerouteNo="0" devices="tripinfo_142858_415_0" vType="pkw" speedFactor="1.20" vaporized=""/>
    <tripinfo id="146052_416_0" depart="25315.00" departLane="319261593#12_0" departPos="4.40" departSpeed="0.00" departDelay="2.00" arrival="25350.00" arrivalLane="4145590#0_1" arrivalPos="95.58" arrivalSpeed="12.25" duration="35.00" routeLength="383.14" waitingTime="0.00" waitingCount="0" stopTime="0.00" timeLoss="3.90" rerouteNo="0" devices="tripinfo_146052_416_0" vType="pkw" speedFactor="0.89" vaporized=""/>
    <tripinfo id="162714_422_0" depart="25301.00" departLane="4999334_0" departPos="4.40" departSpeed="0.00" departDelay="0.00" arrival="25351.00" arrivalLane="-4999334_0" arrivalPos="293.22" arrivalSpeed="13.10" duration="50.00" routeLength="586.71" waitingTime="0.00" waitingCount="0" stopTime="0.00" timeLoss="5.75" rerouteNo="0" devices="tripinfo_162714_422_0" vType="pkw" speedFactor="0.96" vaporized=""/>