<?xml version="1.0" encoding="UTF-8"?>

<!-- generated on 2025-03-11 21:47:07 by Eclipse SUMO sumo Version 1.22.0
<sumoConfiguration xmlns:xsi="http://www.w3.org/2001/XMLSchema-instance" xsi:noNamespaceSchemaLocation="http://sumo.dlr.de/xsd/sumoConfiguration.xsd">

    <input>
        <net-file value="/home/mansour/project/Traffic_signal_control/RESCO/resco_benchmark/environments/cologne3/cologne3.net.xml"/>
        <route-files value="/home/mansour/project/Traffic_signal_control/RESCO/resco_benchmark/environments/cologne3/cologne3.rou.xml"/>
    </input>

    <output>
        <tripinfo-output value="/home/mansour/project/Traffic_signal_control/RESCO/results/IDQN-tr0-cologne3-0-drq_norm-wait_norm/tripinfo_13.xml"/>
        <tripinfo-output.write-unfinished value="true"/>
    </output>

    <time>
        <begin value="25200"/>
        <end value="28800"/>
    </time>

    <processing>
        <time-to-teleport value="-1"/>
    </processing>

    <report>
        <no-warnings value="True"/>
        <no-step-log value="True"/>
    </report>

    <traci_server>
        <remote-port value="44613"/>
    </traci_server>

    <random_number>
        <random value="true"/>
    </random_number>

</sumoConfiguration>
-->

<tripinfos xmlns:xsi="http://www.w3.org/2001/XMLSchema-instance" xsi:noNamespaceSchemaLocation="http://sumo.dlr.de/xsd/tripinfo_file.xsd">
    <tripinfo id="160296_421_0" depart="25211.00" departLane="241660955#13_0" departPos="4.40" departSpeed="0.00" departDelay="0.00" arrival="25232.00" arrivalLane="241660955#17_0" arrivalPos="110.13" arrivalSpeed="15.83" duration="21.00" routeLength="247.24" waitingTime="0.00" waitingCount="0" stopTime="0.00" timeLoss="4.82" rerouteNo="0" devices="tripinfo_160296_421_0" vType="pkw" speedFactor="1.17" vaporized=""/>
    <tripinfo id="73223_384_0" depart="25204.00" departLane="241660957#0_0" departPos="4.40" departSpeed="0.00" departDelay="0.00" arrival="25241.00" arrivalLane="4999331#0_0" arrivalPos="373.64" arrivalSpeed="15.52" duration="37.00" routeLength="489.64" waitingTime="0.00" waitingCount="0" stopTime="0.00" timeLoss="4.81" rerouteNo="0" devices="tripinfo_73223_384_0" vType="pkw" speedFactor="1.12" vaporized=""/>
    <tripinfo id="122325_406_0" depart="25208.00" departLane="319261593#12_0" departPos="4.40" departSpeed="0.00" departDelay="0.00" arrival="25241.00" arrivalLane="-31864804_0" arrivalPos="70.23" arrivalSpeed="14.99" duration="33.00" routeLength="352.97" waitingTime="0.00" waitingCount="0" stopTime="0.00" timeLoss="10.64" rerouteNo="0" devices="tripinfo_122325_406_0" vType="pkw" speedFactor="1.16" vaporized=""/>
    <tripinfo id="169122_425_0" depart="25228.00" departLane="-4999334_0" departPos="4.40" departSpeed="0.00" departDelay="0.00" arrival="25255.00" arrivalLane="-4999334_0" arrivalPos="293.22" arrivalSpeed="11.86" duration="27.00" routeLength="288.82" waitingTime="0.00" waitingCount="0" stopTime="0.00" timeLoss="3.53" rerouteNo="0" devices="tripinfo_169122_425_0" vType="pkw" speedFactor="0.89" vaporized=""/>
    <tripinfo id="140878_414_0" depart="25231.00" departLane="-130160207#0_0" departPos="4.40" departSpeed="0.00" departDelay="0.00" arrival="25257.00" arrivalLane="241660955#17_0" arrivalPos="110.13" arrivalSpeed="14.63" duration="26.00" routeLength="250.75" waitingTime="0.00" waitingCount="0" stopTime="0.00" timeLoss="3.54" rerouteNo="0" devices="tripinfo_140878_414_0" vType="pkw" speedFactor="1.09" vaporized=""/>
    <tripinfo id="141383_415_0" depart="25216.00" departLane="41910184_0" departPos="4.40" departSpeed="0.00" departDelay="0.00" arrival="25258.00" arrivalLane="4145589#0_0" arrivalPos="149.75" arrivalSpeed="8.32" duration="42.00" routeLength="368.38" waitingTime="0.00" waitingCount="0" stopTime="0.00" timeLoss="7.81" rerouteNo="0" devices="tripinfo_141383_415_0" vType="pkw" speedFactor="1.00" vaporized=""/>
    <tripinfo id="153968_420_0" depart="25227.00" departLane="319261593#12_0" departPos="4.40" departSpeed="0.00" departDelay="0.00" arrival="25258.00" arrivalLane="-31864804_0" arrivalPos="70.23" arrivalSpeed="13.64" duration="31.00" routeLength="352.97" waitingTime="0.00" waitingCount="0" stopTime="0.00" timeLoss="6.37" rerouteNo="0" devices="tripinfo_153968_420_0" vType="pkw" speedFactor="1.06" vaporized=""/>
    <tripinfo id="157649_421_0" depart="25229.00" departLane="319261593#12_0" departPos="4.40" departSpeed="0.00" departDelay="0.00" arrival="25261.00" arrivalLane="-31864804_0" arrivalPos="70.23" arrivalSpeed="15.60" duration="32.00" routeLength="352.97" waitingTime="0.00" waitingCount="0" stopTime="0.00" timeLoss="8.65" rerouteNo="0" devices="tripinfo_157649_421_0" vType="pkw" speedFactor="1.13" vaporized=""/>
    <tripinfo id="132667_410_0" depart="25212.00" departLane="-31800061#0_0" departPos="4.40" departSpeed="0.00" departDelay="0.00" arrival="25264.00" arrivalLane="-4999334_0" arrivalPos="293.22" arrivalSpeed="12.18" duration="52.00" routeLength="492.72" waitingTime="0.00" waitingCount="0" stopTime="0.00" timeLoss="6.18" rerouteNo="0" devices="tripinfo_132667_410_0" vType="pkw" speedFactor="0.88" vaporized=""/>
    <tripinfo id="140163_414_0" depart="25244.00" departLane="241660955#13_0" departPos="4.40" departSpeed="0.00" departDelay="0.00" arrival="25265.00" arrivalLane="-41910184_0" arrivalPos="185.90" arrivalSpeed="11.69" duration="21.00" routeLength="216.76" waitingTime="0.00" waitingCount="0" stopTime="0.00" timeLoss="3.82" rerouteNo="0" devices="tripinfo_140163_414_0" vType="pkw" speedFactor="0.92" vaporized=""/>
    <tripinfo id="120846_405_0" depart="25207.00" departLane="31864804_0" departPos="4.40" departSpeed="0.00" departDelay="0.00" arrival="25266.00" arrivalLane="-4999334_0" arrivalPos="293.22" arrivalSpeed="14.64" duration="59.00" routeLength="621.86" waitingTime="2.00" waitingCount="1" stopTime="0.00" timeLoss="18.94" rerouteNo="0" devices="tripinfo_120846_405_0" vType="pkw" speedFactor="1.14" vaporized=""/>
    <tripinfo id="163598_422_0" depart="25236.00" departLane="-130160207#0_0" departPos="4.40" departSpeed="0.00" departDelay="0.00" arrival="25270.00" arrivalLane="241660955#17_0" arrivalPos="110.13" arrivalSpeed="10.74" duration="34.00" routeLength="250.75" waitingTime="0.00" waitingCount="0" stopTime="0.00" timeLoss="4.17" rerouteNo="0" devices="tripinfo_163598_422_0" vType="pkw" speedFactor="0.82" vaporized=""/>
    <tripinfo id="131963_410_0" depart="25223.00" departLane="-31800061#0_0" departPos="4.40" departSpeed="0.00" departDelay="0.00" arrival="25275.00" arrivalLane="-4999334_0" arrivalPos="293.22" arrivalSpeed="12.70" duration="52.00" routeLength="492.72" waitingTime="0.00" waitingCount="0" stopTime="0.00" timeLoss="10.25" rerouteNo="0" devices="tripinfo_131963_410_0" vType="pkw" speedFactor="0.99" vaporized=""/>
    <tripinfo id="166826_424_0" depart="25240.00" departLane="41910184_0" departPos="4.40" departSpeed="0.00" departDelay="0.00" arrival="25278.00" arrivalLane="4145589#0_0" arrivalPos="149.75" arrivalSpeed="9.04" duration="38.00" routeLength="368.38" waitingTime="0.00" waitingCount="0" stopTime="0.00" timeLoss="6.73" rerouteNo="0" devices="tripinfo_166826_424_0" vType="pkw" speedFactor="1.11" vaporized=""/>
    <tripinfo id="111294_401_0" depart="25211.00" departLane="-5229966#3_0" departPos="4.40" departSpeed="0.00" departDelay="0.00" arrival="25285.00" arrivalLane="4145590#0_0" arrivalPos="95.58" arrivalSpeed="15.08" duration="74.00" routeLength="453.70" waitingTime="27.00" waitingCount="2" stopTime="0.00" timeLoss="43.86" rerouteNo="0" devices="tripinfo_111294_401_0" vType="pkw" speedFactor="1.11" vaporized=""/>
    <tripinfo id="161160_421_0" depart="25225.00" departLane="241660957#0_0" departPos="4.40" departSpeed="0.00" departDelay="0.00" arrival="25286.00" arrivalLane="4999331#0_0" arrivalPos="373.64" arrivalSpeed="13.31" duration="61.00" routeLength="489.64" waitingTime="14.00" waitingCount="1" stopTime="0.00" timeLoss="24.68" rerouteNo="0" devices="tripinfo_161160_421_0" vType="pkw" speedFactor="0.97" vaporized=""/>
    <tripinfo id="118698_405_0" depart="25213.00" departLane="-5229966#3_0" departPos="4.40" departSpeed="0.00" departDelay="0.00" arrival="25287.00" arrivalLane="4145590#0_1" arrivalPos="95.58" arrivalSpeed="9.63" duration="74.00" routeLength="453.70" waitingTime="14.00" waitingCount="2" stopTime="0.00" timeLoss="29.09" rerouteNo="0" devices="tripinfo_118698_405_0" vType="pkw" speedFactor="0.73" vaporized=""/>
    <tripinfo id="100929_396_0" depart="25233.00" departLane="-5229966#3_0" departPos="4.40" departSpeed="0.00" departDelay="0.00" arrival="25288.00" arrivalLane="4145590#0_0" arrivalPos="95.58" arrivalSpeed="12.34" duration="55.00" routeLength="453.70" waitingTime="3.00" waitingCount="1" stopTime="0.00" timeLoss="19.23" rerouteNo="0" devices="tripinfo_100929_396_0" vType="pkw" speedFactor="0.94" vaporized=""/>
    <tripinfo id="132022_410_0" depart="25213.00" departLane="241660957#0_0" departPos="4.40" departSpeed="0.00" departDelay="0.00" arrival="25289.00" arrivalLane="4999331#0_0" arrivalPos="373.64" arrivalSpeed="11.08" duration="76.00" routeLength="489.64" waitingTime="26.00" waitingCount="1" stopTime="0.00" timeLoss="35.48" rerouteNo="0" devices="tripinfo_132022_410_0" vType="pkw" speedFactor="0.89" vaporized=""/>
    <tripinfo id="125978_406_0" depart="25249.00" departLane="-5229966#3_0" departPos="4.40" departSpeed="0.00" departDelay="0.00" arrival="25289.00" arrivalLane="4145590#0_0" arrivalPos="95.58" arrivalSpeed="14.48" duration="40.00" routeLength="453.70" waitingTime="0.00" waitingCount="0" stopTime="0.00" timeLoss="8.48" rerouteNo="0" devices="tripinfo_125978_406_0" vType="pkw" speedFactor="1.05" vaporized=""/>
    <tripinfo id="161578_421_0" depart="25264.00" departLane="-4999334_0" departPos="4.40" departSpeed="0.00" departDelay="1.00" arrival="25289.00" arrivalLane="-4999334_0" arrivalPos="293.22" arrivalSpeed="13.36" duration="25.00" routeLength="288.82" waitingTime="0.00" waitingCount="0" stopTime="0.00" timeLoss="4.03" rerouteNo="0" devices="tripinfo_161578_421_0" vType="pkw" speedFactor="1.04" vaporized=""/>
    <tripinfo id="68266_381_0" depart="25229.00" departLane="4045329#5_0" departPos="4.40" departSpeed="0.00" departDelay="0.00" arrival="25290.00" arrivalLane="41910185#0_0" arrivalPos="127.86" arrivalSpeed="7.55" duration="61.00" routeLength="267.37" waitingTime="25.00" waitingCount="1" stopTime="0.00" timeLoss="33.92" rerouteNo="0" devices="tripinfo_68266_381_0" vType="pkw" speedFactor="0.99" vaporized=""/>
    <tripinfo id="168647_425_0" depart="25266.00" departLane="-4999334_0" departPos="4.40" departSpeed="0.00" departDelay="0.00" arrival="25290.00" arrivalLane="-4999334_0" arrivalPos="293.22" arrivalSpeed="14.70" duration="24.00" routeLength="288.82" waitingTime="0.00" waitingCount="0" stopTime="0.00" timeLoss="6.09" rerouteNo="0" devices="tripinfo_168647_425_0" vType="pkw" speedFactor="1.18" vaporized=""/>
    <tripinfo id="163366_422_0" depart="25253.00" departLane="-130160207#0_0" departPos="4.40" departSpeed="0.00" departDelay="0.00" arrival="25291.00" arrivalLane="241660955#17_0" arrivalPos="110.13" arrivalSpeed="11.62" duration="38.00" routeLength="250.75" waitingTime="2.00" waitingCount="1" stopTime="0.00" timeLoss="11.24" rerouteNo="0" devices="tripinfo_163366_422_0" vType="pkw" speedFactor="0.92" vaporized=""/>
    <tripinfo id="100301_396_0" depart="25260.00" departLane="-241660955#17_0" departPos="4.40" departSpeed="0.00" departDelay="0.00" arrival="25292.00" arrivalLane="130160207#0_0" arrivalPos="135.18" arrivalSpeed="7.81" duration="32.00" routeLength="257.86" waitingTime="0.00" waitingCount="0" stopTime="0.00" timeLoss="7.18" rerouteNo="0" devices="tripinfo_100301_396_0" vType="pkw" speedFactor="1.04" vaporized=""/>
    <tripinfo id="155750_420_0" depart="25256.00" departLane="-130160207#0_0" departPos="4.40" departSpeed="0.00" departDelay="0.00" arrival="25293.00" arrivalLane="241660955#17_0" arrivalPos="110.13" arrivalSpeed="14.57" duration="37.00" routeLength="250.75" waitingTime="2.00" waitingCount="1" stopTime="0.00" timeLoss="14.84" rerouteNo="0" devices="tripinfo_155750_420_0" vType="pkw" speedFactor="1.14" vaporized=""/>
    <tripinfo id="132705_410_0" depart="25200.00" departLane="-5229966#3_0" departPos="4.40" departSpeed="0.00" departDelay="0.00" arrival="25295.00" arrivalLane="4045332#0_0" arrivalPos="114.41" arrivalSpeed="8.84" duration="95.00" routeLength="720.54" waitingTime="28.00" waitingCount="1" stopTime="0.00" timeLoss="41.47" rerouteNo="0" devices="tripinfo_132705_410_0" vType="pkw" speedFactor="1.08" vaporized=""/>
    <tripinfo id="150954_418_0" depart="25249.00" departLane="-130160207#0_0" departPos="4.40" departSpeed="0.00" departDelay="0.00" arrival="25295.00" arrivalLane="-41910184_0" arrivalPos="185.90" arrivalSpeed="13.09" duration="46.00" routeLength="470.87" waitingTime="0.00" waitingCount="0" stopTime="0.00" timeLoss="4.47" rerouteNo="0" devices="tripinfo_150954_418_0" vType="pkw" speedFactor="0.99" vaporized=""/>
    <tripinfo id="141513_415_0" depart="25233.00" departLane="4999334_0" departPos="4.40" departSpeed="0.00" departDelay="0.00" arrival="25296.00" arrivalLane="4145590#0_1" arrivalPos="95.58" arrivalSpeed="12.30" duration="63.00" routeLength="615.60" waitingTime="2.00" waitingCount="1" stopTime="0.00" timeLoss="14.17" rerouteNo="0" devices="tripinfo_141513_415_0" vType="pkw" speedFactor="0.92" vaporized=""/>
    <tripinfo id="81370_389_0" depart="25232.00" departLane="4045329#5_0" departPos="4.40" departSpeed="0.00" departDelay="1.00" arrival="25298.00" arrivalLane="-4045330_0" arrivalPos="128.76" arrivalSpeed="7.09" duration="66.00" routeLength="329.66" waitingTime="23.00" waitingCount="1" stopTime="0.00" timeLoss="33.00" rerouteNo="0" devices="tripinfo_81370_389_0" vType="pkw" speedFactor="0.93" vaporized=""/>
    <tripinfo id="160813_421_0" depart="25253.00" departLane="41910184_0" departPos="4.40" departSpeed="0.00" departDelay="0.00" arrival="25298.00" arrivalLane="4145589#0_0" arrivalPos="149.75" arrivalSpeed="7.86" duration="45.00" routeLength="368.38" waitingTime="1.00" waitingCount="1" stopTime="0.00" timeLoss="13.08" rerouteNo="0" devices="tripinfo_160813_421_0" vType="pkw" speedFactor="1.09" vaporized=""/>
    <tripinfo id="126562_407_0" depart="25263.00" departLane="241660957#0_0" departPos="4.40" departSpeed="0.00" departDelay="1.00" arrival="25301.00" arrivalLane="4999331#0_0" arrivalPos="373.64" arrivalSpeed="14.32" duration="38.00" routeLength="489.64" waitingTime="0.00" waitingCount="0" stopTime="0.00" timeLoss="5.05" rerouteNo="0" devices="tripinfo_126562_407_0" vType="pkw" speedFactor="1.07" vaporized=""/>
    <tripinfo id="163790_422_0" depart="25264.00" departLane="-130160207#0_0" departPos="4.40" departSpeed="0.00" departDelay="0.00" arrival="25302.00" arrivalLane="130160207#0_0" arrivalPos="135.18" arrivalSpeed="7.71" duration="38.00" routeLength="270.63" waitingTime="0.00" waitingCount="0" stopTime="0.00" timeLoss="5.45" rerouteNo="0" devices="tripinfo_163790_422_0" vType="pkw" speedFactor="1.00" vaporized=""/>
    <tripinfo id="123109_406_0" depart="25260.00" departLane="241660957#0_0" departPos="4.40" departSpeed="0.00" departDelay="0.00" arrival="25303.00" arrivalLane="4999331#0_0" arrivalPos="373.64" arrivalSpeed="15.38" duration="43.00" routeLength="489.64" waitingTime="0.00" waitingCount="0" stopTime="0.00" timeLoss="10.84" rerouteNo="0" devices="tripinfo_123109_406_0" vType="pkw" speedFactor="1.11" vaporized=""/>
    <tripinfo id="79538_387_0" depart="25216.00" departLane="-5229966#3_0" departPos="4.40" departSpeed="0.00" departDelay="1.00" arrival="25304.00" arrivalLane="4999331#0_1" arrivalPos="373.64" arrivalSpeed="15.74" duration="88.00" routeLength="732.61" waitingTime="14.00" waitingCount="2" stopTime="0.00" timeLoss="42.48" rerouteNo="0" devices="tripinfo_79538_387_0" vType="pkw" speedFactor="1.18" vaporized=""/>
    <tripinfo id="111993_401_0" depart="25251.00" departLane="4045329#5_0" departPos="4.40" departSpeed="0.00" departDelay="0.00" arrival="25304.00" arrivalLane="41910185#0_0" arrivalPos="127.86" arrivalSpeed="7.68" duration="53.00" routeLength="267.37" waitingTime="11.00" waitingCount="2" stopTime="0.00" timeLoss="25.35" rerouteNo="0" devices="tripinfo_111993_401_0" vType="pkw" speedFactor="0.95" vaporized=""/>
    <tripinfo id="149951_417_0" depart="25274.00" departLane="-130160207#0_0" departPos="4.40" departSpeed="0.00" departDelay="0.00" arrival="25310.00" arrivalLane="241660955#17_0" arrivalPos="110.13" arrivalSpeed="13.61" duration="36.00" routeLength="250.75" waitingTime="3.00" waitingCount="1" stopTime="0.00" timeLoss="12.33" rerouteNo="0" devices="tripinfo_149951_417_0" vType="pkw" speedFactor="1.04" vaporized=""/>
    <tripinfo id="153005_419_0" depart="25270.00" departLane="41910184_0" departPos="4.40" departSpeed="0.00" departDelay="0.00" arrival="25311.00" arrivalLane="4145589#0_0" arrivalPos="149.75" arrivalSpeed="8.15" duration="41.00" routeLength="368.38" waitingTime="0.00" waitingCount="0" stopTime="0.00" timeLoss="6.76" rerouteNo="0" devices="tripinfo_153005_419_0" vType="pkw" speedFactor="1.00" vaporized=""/>
    <tripinfo id="76573_386_0" depart="25275.00" departLane="-241660955#17_0" departPos="4.40" departSpeed="0.00" departDelay="0.00" arrival="25312.00" arrivalLane="130160207#0_0" arrivalPos="135.18" arrivalSpeed="7.83" duration="37.00" routeLength="257.86" waitingTime="3.00" waitingCount="1" stopTime="0.00" timeLoss="13.38" rerouteNo="0" devices="tripinfo_76573_386_0" vType="pkw" speedFactor="1.09" vaporized=""/>
    <tripinfo id="163719_422_0" depart="25211.00" departLane="4045330_0" departPos="4.40" departSpeed="0.00" departDelay="0.00" arrival="25315.00" arrivalLane="241660955#17_1" arrivalPos="110.13" arrivalSpeed="12.91" duration="104.00" routeLength="473.04" waitingTime="51.00" waitingCount="1" stopTime="0.00" timeLoss="63.58" rerouteNo="0" devices="tripinfo_163719_422_0" vType="pkw" speedFactor="1.01" vaporized=""/>
    <tripinfo id="98545_395_0" depart="25206.00" departLane="4045330_0" departPos="4.40" departSpeed="0.00" departDelay="0.00" arrival="25316.00" arrivalLane="241660955#17_0" arrivalPos="110.13" arrivalSpeed="12.29" duration="110.00" routeLength="473.04" waitingTime="57.00" waitingCount="1" stopTime="0.00" timeLoss="67.55" rerouteNo="0" devices="tripinfo_98545_395_0" vType="pkw" speedFactor="0.96" vaporized=""/>
    <tripinfo id="137478_412_0" depart="25248.00" departLane="4045330_0" departPos="4.40" departSpeed="0.00" departDelay="0.00" arrival="25317.00" arrivalLane="241660955#17_0" arrivalPos="110.13" arrivalSpeed="13.43" duration="69.00" routeLength="473.04" waitingTime="17.00" waitingCount="1" stopTime="0.00" timeLoss="27.96" rerouteNo="0" devices="tripinfo_137478_412_0" vType="pkw" speedFactor="0.98" vaporized=""/>
    <tripinfo id="85241_390_0" depart="25243.00" departLane="41910184_0" departPos="4.40" departSpeed="0.00" departDelay="1.00" arrival="25318.00" arrivalLane="241660955#17_1" arrivalPos="110.13" arrivalSpeed="11.56" duration="75.00" routeLength="451.07" waitingTime="28.00" waitingCount="1" stopTime="0.00" timeLoss="38.59" rerouteNo="0" devices="tripinfo_85241_390_0" vType="pkw" speedFactor="0.91" vaporized=""/>
    <tripinfo id="71667_383_0" depart="25276.00" departLane="241660957#0_0" departPos="4.40" departSpeed="0.00" departDelay="0.00" arrival="25319.00" arrivalLane="4999331#0_0" arrivalPos="373.64" arrivalSpeed="13.70" duration="43.00" routeLength="489.64" waitingTime="0.00" waitingCount="0" stopTime="0.00" timeLoss="9.59" rerouteNo="0" devices="tripinfo_71667_383_0" vType="pkw" speedFactor="1.06" vaporized=""/>
    <tripinfo id="73303_385_0" depart="25202.00" departLane="319261593#12_0" departPos="4.40" departSpeed="0.00" departDelay="0.00" arrival="25334.00" arrivalLane="4145590#0_0" arrivalPos="95.58" arrivalSpeed="12.57" duration="132.00" routeLength="408.95" waitingTime="86.00" waitingCount="1" stopTime="0.00" timeLoss="100.10" rerouteNo="0" devices="tripinfo_73303_385_0" vType="pkw" speedFactor="0.95" vaporized=""/>
    <tripinfo id="147095_416_0" depart="25300.00" departLane="-130160207#0_0" departPos="4.40" departSpeed="0.00" departDelay="0.00" arrival="25334.00" arrivalLane="241660955#17_0" arrivalPos="110.13" arrivalSpeed="15.63" duration="34.00" routeLength="250.75" waitingTime="4.00" waitingCount="1" stopTime="0.00" timeLoss="12.99" rerouteNo="0" devices="tripinfo_147095_416_0" vType="pkw" speedFactor="1.16" vaporized=""/>
    <tripinfo id="113109_402_0" depart="25203.00" departLane="4999334_0" departPos="4.40" departSpeed="0.00" departDelay="0.00" arrival="25335.00" arrivalLane="-31864804_0" arrivalPos="70.23" arrivalSpeed="14.52" duration="132.00" routeLength="615.92" waitingTime="77.00" waitingCount="1" stopTime="0.00" timeLoss="90.43" rerouteNo="0" devices="tripinfo_113109_402_0" vType="pkw" speedFactor="1.09" vaporized=""/>
    <tripinfo id="118681_405_0" depart="25237.00" departLane="4999334_0" departPos="4.40" departSpeed="0.00" departDelay="0.00" arrival="25335.00" arrivalLane="-31864804_1" arrivalPos="70.23" arrivalSpeed="13.32" duration="98.00" routeLength="615.92" waitingTime="39.00" waitingCount="2" stopTime="0.00" timeLoss="51.93" rerouteNo="0" devices="tripinfo_118681_405_0" vType="pkw" speedFactor="0.97" vaporized=""/>
    <tripinfo id="144088_416_0" depart="25303.00" departLane="241660955#6_0" departPos="4.40" departSpeed="0.00" departDelay="0.00" arrival="25336.00" arrivalLane="-4999334_0" arrivalPos="293.22" arrivalSpeed="12.61" duration="33.00" routeLength="357.51" waitingTime="0.00" waitingCount="0" stopTime="0.00" timeLoss="5.76" rerouteNo="0" devices="tripinfo_144088_416_0" vType="pkw" speedFactor="0.95" vaporized=""/>
    <tripinfo id="142858_415_0" depart="25309.00" departLane="-130160207#0_0" departPos="4.40" departSpeed="0.00" departDelay="0.00" arrival="25337.00" arrivalLane="241660955#17_0" arrivalPos="110.13" arrivalSpeed="14.71" duration="28.00" routeLength="250.75" waitingTime="0.00" waitingCount="0" stopTime="0.00" timeLoss="5.56" rerouteNo="0" devices="tripinfo_142858_415_0" vType="pkw" speedFactor="1.10" vaporized=""/>
    <tripinfo id="165473_423_0" depart="25267.00" departLane="41910186_0" departPos="4.40" departSpeed="0.00" departDelay="0.00" arrival="25338.00" arrivalLane="-31864804_0" arrivalPos="70.23" arrivalSpeed="11.25" duration="71.00" routeLength="565.92" waitingTime="11.00" waitingCount="1" stopTime="0.00" timeLoss="23.13" rerouteNo="0" devices="tripinfo_165473_423_0" vType="pkw" speedFactor="0.86" vaporized=""/>
    <tripinfo id="143042_415_0" depart="25300.00" departLane="31864804_0" departPos="4.40" departSpeed="0.00" departDelay="0.00" arrival="25339.00" arrivalLane="4145590#0_0" arrivalPos="95.58" arrivalSpeed="12.58" duration="39.00" routeLength="195.56" waitingTime="14.00" waitingCount="1" stopTime="0.00" timeLoss="23.39" rerouteNo="0" devices="tripinfo_143042_415_0" vType="pkw" speedFactor="0.95" vaporized=""/>
    <tripinfo id="158876_421_0" depart="25255.00" departLane="319261593#12_0" departPos="4.40" departSpeed="0.00" departDelay="0.00" arrival="25340.00" arrivalLane="-31864804_0" arrivalPos="70.23" arrivalSpeed="16.98" duration="85.00" routeLength="352.97" waitingTime="51.00" waitingCount="2" stopTime="0.00" timeLoss="63.64" rerouteNo="0" devices="tripinfo_158876_421_0" vType="pkw" speedFactor="1.23" vaporized=""/>
    <tripinfo id="173797_427_0" depart="25226.00" departLane="-41910186_0" departPos="4.40" departSpeed="0.00" departDelay="0.00" arrival="25342.00" arrivalLane="4145590#0_1" arrivalPos="95.58" arrivalSpeed="13.88" duration="116.00" routeLength="894.77" waitingTime="35.00" waitingCount="2" stopTime="0.00" timeLoss="53.00" rerouteNo="0" devices="tripinfo_173797_427_0" vType="pkw" speedFactor="1.04" vaporized=""/>
    <tripinfo id="67548_381_0" depart="25288.00" departLane="-41910185#2_0" departPos="4.40" departSpeed="0.00" departDelay="0.00" arrival="25344.00" arrivalLane="241660955#10_0" arrivalPos="56.57" arrivalSpeed="12.78" duration="56.00" routeLength="191.84" waitingTime="27.00" waitingCount="1" stopTime="0.00" timeLoss="35.02" rerouteNo="0" devices="tripinfo_67548_381_0" vType="pkw" speedFactor="0.96" vaporized=""/>
    <tripinfo id="147727_416_0" depart="25301.00" departLane="41910184_0" departPos="4.40" departSpeed="0.00" departDelay="0.00" arrival="25345.00" arrivalLane="4145589#0_0" arrivalPos="149.75" arrivalSpeed="7.14" duration="44.00" routeLength="368.38" waitingTime="0.00" waitingCount="0" stopTime="0.00" timeLoss="6.77" rerouteNo="0" devices="tripinfo_147727_416_0" vType="pkw" speedFactor="0.93" vaporized=""/>
    <tripinfo id="149148_417_0" depart="25279.00" departLane="-130160207#0_0" departPos="4.40" departSpeed="0.00" departDelay="0.00" arrival="25348.00" arrivalLane="-41910184_0" arrivalPos="185.90" arrivalSpeed="12.27" duration="69.00" routeLength="470.87" waitingTime="15.00" waitingCount="2" stopTime="0.00" timeLoss="26.31" rerouteNo="0" devices="tripinfo_149148_417_0" vType="pkw" speedFactor="0.96" vaporized=""/>
    <tripinfo id="104671_398_0" depart="25286.00" departLane="-41910185#2_0" departPos="4.40" departSpeed="0.00" departDelay="0.00" arrival="25348.00" arrivalLane="241660955#11_0" arrivalPos="73.18" arrivalSpeed="14.39" duration="62.00" routeLength="279.28" waitingTime="29.00" waitingCount="1" stopTime="0.00" timeLoss="37.84" rerouteNo="0" devices="tripinfo_104671_398_0" vType="pkw" speedFactor="1.09" vaporized=""/>
    <tripinfo id="152332_419_0" depart="25313.00" departLane="-130160207#0_0" departPos="4.40" departSpeed="0.00" departDelay="0.00" arrival="25350.00" arrivalLane="241660955#17_0" arrivalPos="110.13" arrivalSpeed="15.12" duration="37.00" routeLength="250.75" waitingTime="6.00" waitingCount="1" stopTime="0.00" timeLoss="14.83" rerouteNo="0" devices="tripinfo_152332_419_0" vType="pkw" speedFactor="1.13" vaporized=""/>
    <tripinfo id="147523_416_0" depart="25297.00" departLane="241660957#0_0" departPos="4.40" departSpeed="0.00" departDelay="0.00" arrival="25352.00" arrivalLane="4999331#0_0" arrivalPos="373.64" arrivalSpeed="13.07" duration="55.00" routeLength="489.64" waitingTime="10.00" waitingCount="1" stopTime="0.00" timeLoss="18.20" rerouteNo="0" devices="tripinfo_147523_416_0" vType="pkw" speedFactor="0.96" vaporized=""/>
    <tripinfo id="168091_425_0" depart="25281.00" departLane="-130160207#0_0" departPos="4.40" departSpeed="0.00" departDelay="0.00" arrival="25353.00" arrivalLane="-41910184_0" arrivalPos="185.90" arrivalSpeed="11.60" duration="72.00" routeLength="470.87" waitingTime="14.00" waitingCount="1" stopTime="0.00" timeLoss="25.02" rerouteNo="0" devices="tripinfo_168091_425_0" vType="pkw" speedFactor="0.87" vaporized=""/>
    <tripinfo id="149020_417_0" depart="25324.00" departLane="4999331#0_0" departPos="4.40" departSpeed="0.00" departDelay="1.00" arrival="25353.00" arrivalLane="4999331#0_1" arrivalPos="373.64" arrivalSpeed="15.05" duration="29.00" routeLength="369.24" waitingTime="0.00" waitingCount="0" stopTime="0.00" timeLoss="4.24" rerouteNo="0" devices="tripinfo_149020_417_0" vType="pkw" speedFactor="1.11" vaporized=""/>
    <tripinfo id="139107_413_0" depart="25284.00" departLane="-130160207#0_0" departPos="4.40" departSpeed="0.00" departDelay="0.00" arrival="25354.00" arrivalLane="-41910184_0" arrivalPos="185.90" arrivalSpeed="13.47" duration="70.00" routeLength="470.87" waitingTime="13.00" waitingCount="1" stopTime="0.00" timeLoss="30.17" rerouteNo="0" devices="tripinfo_139107_413_0" vType="pkw" speedFactor="1.02" vaporized=""/>
    <tripinfo id="162714_422_0" depart="25301.00" departLane="4999334_0" departPos="4.40" departSpeed="0.00" departDelay="0.00" arrival="25354.00" arrivalLane="-4999334_0" arrivalPos="293.22" arrivalSpeed="12.62" duration="53.00" routeLength="586.71" waitingTime="0.00" waitingCount="0" stopTime="0.00" timeLoss="6.30" rerouteNo="0" devices="tripinfo_162714_422_0" vType="pkw" speedFactor="0.92" vaporized=""/>
    <tripinfo id="80569_388_0" depart="25309.00" departLane="319261593#12_0" departPos="4.40" departSpeed="0.00" departDelay="0.00" arrival="25354.00" arrivalLane="4145590#0_1" arrivalPos="95.58" arrivalSpeed="13.56" duration="45.00" routeLength="383.14" waitingTime="9.00" waitingCount="1" stopTime="0.00" timeLoss="17.88" rerouteNo="0" devices="tripinfo_80569_388_0" vType="pkw" speedFactor="1.03" vaporized=""/>
    <tripinfo id="97604_395_0" depart="25295.00" departLane="319261593#12_0" departPos="4.40" departSpeed="0.00" departDelay="0.00" arrival="25355.00" arrivalLane="-31864804_0" arrivalPos="70.23" arrivalSpeed="12.92" duration="60.00" routeLength="367.00" waitingTime="10.00" waitingCount="1" stopTime="0.00" timeLoss="31.40" rerouteNo="0" devices="tripinfo_97604_395_0" vType="pkw" speedFactor="0.94" vaporized=""/>
    <tripinfo id="84339_390_0" depart="25297.00" departLane="319261593#12_0" departPos="4.40" departSpeed="0.00" departDelay="0.00" arrival="25355.00" arrivalLane="4145590#0_0" arrivalPos="95.58" arrivalSpeed="11.86" duration="58.00" routeLength="383.14" waitingTime="15.00" waitingCount="1" stopTime="0.00" timeLoss="28.28" rerouteNo="0" devices="tripinfo_84339_390_0" vType="pkw" speedFactor="0.95" vaporized=""/>
    <tripinfo id="146052_416_0" depart="25314.00" departLane="319261593#12_0" departPos="4.40" departSpeed="0.00" departDelay="1.00" arrival="25356.00" arrivalLane="4145590#0_1" arrivalPos="95.58" arrivalSpeed="13.24" duration="42.00" routeLength="383.14" waitingTime="3.00" waitingCount="1" stopTime="0.00" timeLoss="12.90" rerouteNo="0" devices="tripinfo_146052_416_0" vType="pkw" speedFactor="0.96" vaporized=""/>